# vtk DataFile Version 2.3
FEM Grid Data
ASCII
DATASET UNSTRUCTURED_GRID
POINTS 28959 float
-526185   -1.53048e+06   5.01694e+06
-50778.8   -1.37681e+06   4.41256e+06
-74015.3   -1.8988e+06   4.92592e+06
-149872   -2.16568e+06   4.23679e+06
-1.19938e+06   -1.78044e+06   5.31267e+06
-952779   -1.113e+06   5.08147e+06
-1.21683e+06   -1.80527e+06   4.82005e+06
-909908   -2.17288e+06   5.22337e+06
-794076   -1.80894e+06   5.37867e+06
-922229   -1.22497e+06   4.40823e+06
-478003   -1.0431e+06   5.16958e+06
-70857   -957782   4.97573e+06
-118895   -1.28308e+06   5.58323e+06
-574369   -1.15349e+06   5.58323e+06
-967492   -1.36162e+06   5.48114e+06
-400017   -1.6225e+06   5.48091e+06
-464739   -2.09257e+06   5.31395e+06
-53045.6   -2.17372e+06   -3.48351e+06
1.04495e+06   -1.99518e+06   -3.48061e+06
751766   -2.95117e+06   -3.97285e+06
832951   -2.30568e+06   -4.59536e+06
-201619   -2.95065e+06   -4.37616e+06
-223581   -2.81973e+06   -3.03469e+06
-846909   -2.43455e+06   -3.47e+06
80926   -2.23187e+06   -4.75467e+06
-626300   -2.01932e+06   -4.22319e+06
123098   -1.50647e+06   -3.94708e+06
-2.55128e+06   -474511   3.39756e+06
-2.19669e+06   -22015.4   4.08418e+06
-2.40174e+06   233207   3.19193e+06
-3.19623e+06   533982   3.44142e+06
-2.53701e+06   -1.26623e+06   4.46635e+06
-1.68532e+06   -1.12813e+06   3.74436e+06
-2.42625e+06   -496390   4.70757e+06
-2.1086e+06   -671392   2.71165e+06
-3.17683e+06   -597890   2.71408e+06
1.23189e+06   -1.7144e+06   4.90315e+06
1.28408e+06   -771360   4.49506e+06
2.03331e+06   -1.59108e+06   5.11537e+06
2.04555e+06   -1.51489e+06   4.53583e+06
-2.61201e+06   -1.29148e+06   2.77345e+06
-2.72404e+06   -1.29973e+06   3.6482e+06
1.78798e+06   2.85567e+06   947780
2.47323e+06   2.40025e+06   609872
1.93239e+06   2.917e+06   -83627
2.11813e+06   3.36987e+06   511166
-1.76858e+06   -418446   3.57109e+06
1.3732e+06   -1.63655e+06   -4.27257e+06
1.79692e+06   -1.79263e+06   -3.06863e+06
1.96893e+06   -2.54572e+06   -3.2912e+06
-221665   -304169   -5.10324e+06
-140904   -132090   -4.2766e+06
-586190   730934   -4.97612e+06
-933359   -322267   -3.98591e+06
-1.0692e+06   -1.3094e-10   -3.33269e+06
-1.22839e+06   776688   -3.18399e+06
-608949   386864   -3.99143e+06
-1.50448e+06   302157   -4.01461e+06
-1.27262e+06   1.27819e+06   -3.74991e+06
200837   655954   -4.57811e+06
-287216   1.09015e+06   -3.99691e+06
-2.14313e-10   -2.62458e-26   -3.5e+06
-1.4077e+06   -897017   5.48148e+06
-1.41089e+06   -1.38938e+06   5.37698e+06
-1.48434e+06   -1.23024e+06   4.93197e+06
-299905   -519957   4.60042e+06
-1.07676e+06   -561965   5.11693e+06
-654734   -422935   5.16787e+06
2.25682e+06   -3.06652e+06   -2.56776e+06
2.70411e+06   -2.18929e+06   -2.92881e+06
1.72247e+06   -2.45732e+06   -2.56198e+06
-952271   -868110   5.58323e+06
1.82344e+06   -4.23606e+06   -2.31095e+06
2.75324e+06   -3.7488e+06   -2.21891e+06
2.795e+06   -4.39498e+06   -2.38851e+06
2.31806e+06   -3.83873e+06   -2.86069e+06
2.8903e+06   -3.41878e+06   -1.19466e+06
3.52523e+06   -3.33825e+06   -1.95766e+06
3.15627e+06   -2.79679e+06   -2.27449e+06
3.16237e+06   -4.30649e+06   -2.07038e+06
2.57488e+06   -4.26272e+06   -1.57522e+06
2.05547e+06   -3.26627e+06   -1.78518e+06
-814525   -3.39665e+06   -3.80721e+06
-1.05971e+06   -2.78952e+06   -2.83681e+06
48671.5   -3.73937e+06   -3.76955e+06
391112   -3.19957e+06   -2.60542e+06
-1.38488e+06   2.79074e+06   2.64166e+06
-783563   2.02012e+06   3.33975e+06
-477065   2.65256e+06   3.73814e+06
-1.51043e+06   2.78638e+06   3.60959e+06
-1.37815e+06   2.13344e+06   2.40813e+06
-1.83762e+06   2.11771e+06   2.87022e+06
2.63198e+06   -2.3858e+06   -4.01003e+06
2.1722e+06   -3.28571e+06   -3.61733e+06
-1.37279e+06   2.4557e+06   4.38062e+06
-630265   1.77553e+06   4.35584e+06
-1.11156e+06   1.48321e+06   2.96893e+06
-1.42804e+06   1.13259e+06   3.7054e+06
-1.55992e+06   1.84661e+06   3.62682e+06
-70493.5   1.59129e+06   3.11654e+06
-533887   2.18592e+06   2.6808e+06
3.64041e+06   1.45774e+06   -1.10235e+06
3.59466e+06   1.74776e+06   13251
4.45119e+06   1.86704e+06   -498221
3.29533e+06   2.30193e+06   -685289
4.5782e+06   806132   -740449
3.67254e+06   510254   -1.60253e+06
4.15725e+06   954789   -2.22628e+06
4.13269e+06   2.13696e+06   -1.6139e+06
3.20077e+06   1.25176e+06   -2.30352e+06
3.07922e+06   2.39834e+06   -1.42858e+06
3.29434e+06   961057   -688266
4.81786e+06   1.77581e+06   -1.28705e+06
-2.02354e+06   3.26065e+06   875393
-3.23633e+06   3.56999e+06   436939
-2.38483e+06   3.93387e+06   743046
-2.34324e+06   3.41376e+06   40513.9
-2.52804e+06   3.62084e+06   1.91478e+06
-3.0923e+06   2.63763e+06   1.17313e+06
-2.3973e+06   2.27652e+06   1.14908e+06
-2.13638e+06   2.74234e+06   406754
-1.60215e+06   3.68284e+06   303810
-1.37195e+06   3.15667e+06   634958
-2.28667e+06   -2.49108e+06   -2.19331e+06
-2.46926e+06   -3.06405e+06   -1.50672e+06
-3.27023e+06   -2.62091e+06   -2.4517e+06
-2.88496e+06   -3.48625e+06   -2.66645e+06
-2.36901e+06   -1.30462e+06   -2.22166e+06
-2.36908e+06   -2.03293e+06   -1.58261e+06
-1.52726e+06   -2.49379e+06   -1.92315e+06
-1.80884e+06   -2.20403e+06   -2.83035e+06
-1.93798e+06   -3.64809e+06   -2.4648e+06
-1.79924e+06   -2.75831e+06   -1.18511e+06
2.59261e+06   3.92241e+06   -3.27505e+06
2.72372e+06   4.12847e+06   -2.89309e+06
2.27774e+06   3.87106e+06   -2.7563e+06
3.03122e+06   3.34306e+06   -2.62738e+06
3.02434e+06   4.12455e+06   -2.58348e+06
2.26627e+06   4.22936e+06   -2.23173e+06
2.178e+06   3.04421e+06   -2.39753e+06
2.57744e+06   4.40808e+06   -2.59972e+06
1.46849e+06   -3.38535e+06   -3.05432e+06
259847   3.56021e+06   2.30334e+06
-1.00243e+06   3.3375e+06   2.05004e+06
-909481   3.96478e+06   2.68821e+06
-239592   3.75332e+06   1.31839e+06
622268   2.87752e+06   3.13036e+06
390509   2.19639e+06   2.69692e+06
777275   2.68791e+06   2.10261e+06
1.2479e+06   -5.34932e+06   -1.63109e+06
1.77059e+06   -5.16361e+06   -1.74214e+06
1.39322e+06   -5.15803e+06   -2.0704e+06
1.49358e+06   -4.69021e+06   -1.70879e+06
317774   4.31436e+06   1.82868e+06
517073   4.61913e+06   2.58161e+06
1.21533e+06   3.80702e+06   2.44124e+06
1.23688e+06   2.89701e+06   2.46698e+06
678212   3.64627e+06   1.55034e+06
311961   3.07076e+06   1.65018e+06
-4.11639e+06   -13315.7   3.98598e+06
-4.36891e+06   187287   3.70276e+06
-4.11584e+06   476253   3.95802e+06
-3.58288e+06   -26192.3   3.89354e+06
-3.56608e+06   -721046   4.42675e+06
-2.97317e+06   -135076   4.33229e+06
-3.18985e+06   -558851   4.7271e+06
-3.42814e+06   -939489   3.89979e+06
-3.02996e+06   848559   4.25831e+06
-3.50579e+06   -177809   4.52888e+06
-3.41357e+06   272023   4.59417e+06
-4.13241e+06   154110   3.06637e+06
-3.81925e+06   816989   4.1927e+06
1.64812e+06   -4.39698e+06   -3.28378e+06
815346   -4.04821e+06   -2.9391e+06
-2.27089e+06   1.16043e+06   3.94514e+06
-1.76998e+06   38318.2   3.01922e+06
-1.72945e+06   379739   3.61726e+06
-1.5561e+06   -631825   4.86525e+06
-1.01683e+06   -127751   4.04263e+06
-2.20011e+06   -981089   5.19902e+06
-2.30024e+06   -469147   5.22702e+06
-1.69307e+06   -23129.9   4.77367e+06
1.75683e+06   -5.39709e+06   786009
1.97287e+06   -5.37007e+06   320915
1.28122e+06   -5.1519e+06   119510
2.24258e+06   -4.59852e+06   370713
1.99539e+06   1.93251e+06   2.12928e+06
2.49297e+06   2.87299e+06   2.56089e+06
1.47554e+06   2.69281e+06   3.11837e+06
2.16335e+06   1.87053e+06   3.05295e+06
889817   1.54465e+06   3.01202e+06
1.25537e+06   2.11629e+06   2.48905e+06
1.77159e+06   2.06497e+06   3.72543e+06
1.19431e+06   2.8097e+06   4.07048e+06
826950   1.96292e+06   3.59077e+06
-4.81132e+06   -2.77827e+06   -1.4019e+06
-4.74296e+06   -2.61558e+06   -1.86975e+06
-5.00707e+06   -2.31295e+06   -1.55318e+06
-4.74897e+06   -2.04241e+06   -1.2109e+06
-2.98994e+06   1.66862e+06   -725259
-3.73485e+06   1.32014e+06   -1.70535e+06
-4.03844e+06   2.03903e+06   -969969
-3.26316e+06   2.05982e+06   -1.42834e+06
-5.08179e+06   2.47565e+06   -937769
-4.97657e+06   2.47122e+06   -1.3999e+06
-4.2463e+06   2.7718e+06   -851029
-4.68664e+06   2.00645e+06   -488483
-3.46269e+06   2.11504e+06   124817
-3.49831e+06   2.97001e+06   -849445
-4.13106e+06   2.55765e+06   -1.76472e+06
-2.91016e+06   4.36985e+06   -74863.9
3.13745e+06   1.09067e+06   4.66902e+06
3.31192e+06   1.53684e+06   4.41613e+06
3.45754e+06   953528   3.77818e+06
2.82303e+06   1.39052e+06   3.49793e+06
3.93707e+06   652479   4.11177e+06
4.207e+06   1.14816e+06   3.71696e+06
3.66872e+06   197613   3.40909e+06
3.63258e+06   239777   4.42491e+06
3.03888e+06   191277   4.31468e+06
3.53005e+06   898201   4.42322e+06
3.4491e+06   2.03177e+06   4.09982e+06
3.75592e+06   1.36331e+06   4.10698e+06
1.38138e+06   -780715   -3.11966e+06
2.15255e+06   -833585   -2.6309e+06
2.40788e+06   -1.53495e+06   -3.81101e+06
1.24499e+06   -2.03951e+06   -2.55742e+06
1.99258e+06   -1.73374e+06   -2.29647e+06
888225   -1.50778e+06   -3.03112e+06
1.69894e+06   -2.61714e+06   -4.03694e+06
984552   873869   -3.85483e+06
716878   1.23844e+06   -5.05147e+06
313559   1.5389e+06   -3.89725e+06
1.68105e+06   871392   -4.95356e+06
1.00023e+06   410340   -4.9392e+06
1.0692e+06   -4.74822e-10   -3.33269e+06
1.34708e+06   798059   -3.13025e+06
2.07158e+06   604245   -3.37305e+06
534602   925958   -3.33269e+06
936509   123937   -4.05213e+06
2.07777e+06   413630   -4.35966e+06
1.65875e+06   1.45318e+06   -4.25741e+06
-4.2536e+06   -3.43145e+06   -1.72189e+06
-4.00818e+06   -3.53934e+06   -2.05924e+06
-4.2207e+06   -3.23034e+06   -2.14091e+06
-3.60071e+06   -3.52863e+06   -1.81333e+06
-4.09698e+06   -3.06318e+06   -1.54915e+06
-4.07517e+06   -2.40864e+06   -2.4077e+06
-4.00059e+06   -2.03894e+06   -1.64526e+06
-4.45777e+06   -2.85389e+06   -2.19466e+06
-3.48152e+06   -3.20057e+06   -1.1461e+06
-4.41616e+06   -2.73063e+06   -1.01114e+06
-3.18722e+06   -2.34869e+06   -996539
-4.52525e+06   -3.2705e+06   -1.28796e+06
-4.52267e+06   -3.04213e+06   -1.76742e+06
245445   -3.57225e+06   2.88188e+06
795164   -4.01675e+06   1.72564e+06
1.24301e+06   -4.5689e+06   2.20009e+06
[...]
POINT_DATA 28959
VECTORS displacement float
-0.0236122   0.0743074   0.00715648
-0.0225095   0.0815906   0.00735846
-0.0204221   0.0882985   0.00732273
-0.0176991   0.0930204   0.00734963
-0.0146155   0.0970261   0.00739452
-0.0113493   0.0983354   0.00753643
-0.00814822   0.098678   0.00755082
-0.0047374   0.0964595   0.00749919
-0.00158406   0.0933785   0.00768417
0.00144157   0.0881027   0.00761295
0.00396756   0.0820792   0.00757758
0.00619753   0.0745269   0.00732525
0.0075971   0.0670352   0.00699229
0.00856343   0.059036   0.00668283
0.00870146   0.0508478   0.0059482
-0.0220398   0.0278885   -0.0219751
-0.00135176   0.0451172   -0.0106672
0.00424605   0.0511117   -0.00547665
0.00761624   0.0525926   -0.00133622
0.00838941   0.0515303   0.0010059
0.00888324   0.0489947   0.00281021
0.00853995   0.0461926   0.00430236
0.327021   -0.427163   -0.053857
0.41678   -0.476608   -0.100722
0.482297   -0.471238   -0.1136
0.446316   -0.410052   -0.0674843
0.299194   -0.372823   -0.00815999
0.145401   -0.360676   -0.025628
0.061058   -0.36345   0.00153836
-0.00588862   -0.360974   0.0320566
-0.0337646   -0.345362   0.041662
0.284832   -0.509102   -0.0518847
0.289345   -0.615539   -0.0685995
0.276811   -0.753091   -0.0831132
0.25278   -0.836553   -0.0929399
0.214792   -0.914612   -0.0944429
0.176922   -0.932441   -0.100752
0.141231   -0.939728   -0.0976898
0.11618   -0.911399   -0.090339
0.116298   -0.903879   -0.0875194
0.114412   -0.890333   -0.100479
0.0972165   -0.886552   -0.111756
0.0743536   -0.847538   -0.103783
0.0530713   -0.809158   -0.0881152
0.0345057   -0.75749   -0.0725599
0.0102726   -0.705832   -0.0590699
-0.0145504   -0.626631   -0.0444843
-0.0311213   -0.548469   -0.035
-0.0473485   -0.463101   -0.0255689
-0.0558873   -0.39039   -0.0200286
-0.0609964   -0.31992   -0.0140867
0.692396   -1.27681   0.94643
0.945162   -1.5277   1.01911
0.851832   -1.22355   0.763276
0.372467   -1.00638   0.288183
0.090608   -0.772111   -0.114025
-0.0137515   -0.683252   -0.148008
-0.060751   -0.514569   -0.07363
-0.0746626   -0.380613   -0.0334229
-0.0665454   -0.300811   -0.0175843
-0.0266278   0.0729863   0.00745344
-0.0297333   0.0806543   0.00788234
-0.0317621   0.0886433   0.00827921
-0.0355534   0.0980864   0.00735952
-0.0338939   0.102715   0.0042234
-0.0257708   0.105268   -0.00168229
0.0166498   0.0731304   -0.00763214
-0.000106071   -0.000808203   -0.000572567
0.00196344   -0.00260467   0.000146257
0.00359018   -0.00591877   0.00114172
0.00288135   -0.00915362   0.00158145
0.000398715   -0.00952217   0.00160744
-0.00182275   -0.00835277   0.00149384
-0.00234047   -0.00540345   0.000925387
-0.00113031   -0.00253648   9.1044e-05
0.00012146   -0.000614761   -0.000555249
0.000683501   -0.000117154   -0.00084046
2.0162e-05   0.000163022   -0.000696705
-0.00162478   0.00133689   -0.000164396
-0.002975   0.00363211   0.000341068
-0.00280816   0.00602507   0.000828587
-0.00155758   0.00651614   0.00106792
-0.000112406   0.00630486   0.000917242
0.00111201   0.00492562   0.000726808
0.000928064   0.00261192   0.000160511
5.67355e-05   0.00100901   -0.000390903
-0.00089589   -5.48754e-05   -0.000809745
0.0257171   -0.48254   0.155777
0.118288   -0.771188   0.278563
0.0618067   -0.516851   0.2554
0.0280489   -0.308832   0.101108
0.0230323   -0.262034   0.0929449
0.095913   -0.243023   0.0958448
-0.00614113   -0.0545058   0.127123
0.160782   -0.258513   0.175369
0.0951355   -0.109705   0.07314
0.0891012   -0.0918795   0.106319
0.105729   -0.0843971   0.0848485
0.11666   -0.124831   0.204297
0.0828219   0.0494153   0.13788
0.133035   0.017768   0.103549
0.153402   0.0460404   0.041193
-0.0238452   0.0659893   0.00662805
0.00818654   0.0428915   0.00500304
-0.0127409   -0.191961   0.0279354
0.25452   -0.370336   -0.03721
-0.060586   -0.243712   -0.0146104
0.135847   0.0448159   0.0706523
-0.00101956   -0.000331079   -0.000872966
-0.00309581   0.00666494   0.000820355
-0.00342607   0.00671113   0.000684754
-0.00311348   0.00609635   0.000640064
0.00115907   0.00393404   0.000416273
0.000598614   0.00595635   0.000867944
-0.000847501   0.000760331   -0.000449419
-0.00310777   0.00521232   0.000506501
0.000402432   -0.000573116   -0.000566221
-0.00121104   -0.000267942   -0.000788396
0.00123054   0.00477473   0.000522524
0.000690533   0.00203623   -8.85869e-05
-0.00234893   -0.00744911   0.00119247
-0.00190239   -0.00411837   0.000449982
-0.00295661   0.00705449   0.000941349
0.00385121   -0.00876081   0.00131991
0.0011019   0.00316656   0.000128353
1.65464e-05   0.00741557   0.0010923
0.00123648   0.00574045   0.000776586
0.00328831   -0.00439574   0.000678491
-0.00258349   0.00267598   7.57486e-05
-0.00338391   0.00753056   0.000796601
0.000511145   0.00170032   -0.000178587
-0.00217592   -0.00880859   0.00142687
-0.000225866   0.000425383   -0.00067543
-0.00260072   -0.00605954   0.000917408
-0.0010317   -0.0103532   0.00150707
-0.000532359   -0.00153337   -0.000172709
0.00408002   -0.00608064   0.000998473
0.0043029   -0.00789594   0.00138433
0.00133397   0.0051528   0.000498726
0.00129751   0.00421626   0.000333267
-0.000486217   0.000395242   -0.000559543
-0.00351616   0.00595181   0.000596476
2.2054e-05   -0.00111311   -0.000559593
0.000513428   -8.47305e-06   -0.000771238
-0.00310346   0.00382197   0.000277356
0.00096332   0.00261897   -2.43591e-05
-0.00116172   -0.000428283   -0.000818994
-0.00256473   -0.00860849   0.00130559
0.000427019   0.00691575   0.00101664
0.00100241   0.00624509   0.000923518
0.00108532   -0.00182892   -0.000143646
0.00215687   -0.00298537   0.000293983
-0.00235919   0.00730593   0.000928943
-0.00168666   0.00758657   0.00113057
-0.000973228   0.00726012   0.00100507
-0.000383146   0.00742622   0.00107447
0.000619526   -0.000372462   -0.000661719
-0.00233128   -0.00502866   0.000631224
-0.00189389   -0.00375857   0.000274056
0.00347798   -0.0107883   0.00171738
-0.00119174   -0.00022454   -0.000766726
-9.48661e-05   0.000884633   -0.000409349
-0.00303893   0.00822389   0.000951521
8.73723e-05   -0.000964794   -0.000418562
0.00465798   -0.00977627   0.00148292
-0.00148161   0.00135895   -0.000275211
-0.00187221   -0.00995177   0.00170738
-0.000864352   0.000896879   -0.000483417
0.000412272   7.81175e-05   -0.000797963
-0.00283489   -0.00730535   0.00109165
-0.00104152   -0.0123791   0.00170524
-0.00148624   -0.00289712   8.29427e-05
-0.000990273   -0.00212752   -2.83235e-05
0.00436836   -0.00723717   0.0012629
0.00141528   0.00607278   0.000665218
0.00126749   0.00374355   0.000134728
0.000925814   -0.000239056   -0.00078699
-0.000988493   -1.89982e-05   -0.000709526
-0.00339728   0.00486062   0.000587644
-0.000683743   -0.00059892   -0.000709221
0.000869486   -0.000110814   -0.000840137
0.000758577   -3.43646e-05   -0.000832572
4.7245e-05   -0.0119431   0.00142984
-0.00124059   0.00128931   -0.000356126
-0.00145107   -0.000326239   -0.000811604
-0.00139704   -0.000407648   -0.000852963
-0.00182355   -0.0115032   0.00180051
-0.00234633   -0.0102044   0.00163823
0.00127771   0.00694603   0.000923852
0.000715017   -0.00176443   -0.000352401
0.00292541   -0.00385356   0.00052054
-0.00199791   0.00825365   0.00112088
-0.00143732   0.00839917   0.00113564
-0.000158861   0.00849248   0.00119035
-0.00226848   0.00212975   5.48187e-06
0.00143739   0.00494995   0.000405414
0.000647479   -0.00058142   -0.000609498
0.000272208   0.000281183   -0.000773109
-0.00282381   -0.0064848   0.000856831
-0.00206574   -0.00395303   0.000257062
0.00429009   -0.0111537   0.00158788
0.00231249   -0.0112421   0.00167266
-0.00132832   -0.0002265   -0.000755865
0.000278607   0.00137604   -0.000261439
-0.00306075   0.00337998   0.00014854
-0.000375819   0.000646079   -0.000505276
-0.000451248   -0.00154961   -0.000233437
0.00503613   -0.00915899   0.0014387
-0.000809357   0.00022708   -0.000645011
0.00113052   -0.0122274   0.00168914
-0.000312258   -0.0146228   0.00231268
-0.00359225   0.00475697   0.000448952
-0.000499211   0.000794484   -0.000590298
0.000831977   3.09604e-05   -0.000833601
0.00119322   0.00327547   5.34162e-05
0.000775901   0.00216443   -9.57439e-05
-0.00111789   -0.000559236   -0.000815085
-0.000225284   -0.00102494   -0.000655272
-0.00309672   -0.00840923   0.00127941
0.00121296   -0.00020174   -0.000836532
-0.00162363   -0.0139063   0.00220729
-0.00289892   -0.00978157   0.00156674
0.000382084   0.00820137   0.00115407
0.00088515   0.00758547   0.0010691
-0.00161116   -0.00314263   5.00543e-05
-0.00106992   -0.00229725   -9.60518e-05
0.00187848   -0.00273137   9.67257e-05
-0.00253185   0.00881849   0.00109597
-0.00193127   0.0093947   0.00124232
-0.000785503   0.00843369   0.0011131
-0.0016277   -0.000311869   -0.000800013
0.00501126   -0.00784263   0.00113834
-0.00200891   0.00204545   -9.72328e-05
0.00143998   0.00456702   0.000331837
0.00100828   -0.000355431   -0.000760061
8.54808e-05   0.000530125   -0.000731693
-0.00250435   -0.0051195   0.000510849
0.00361231   -0.0124983   0.00188489
0.00298031   -0.0136426   0.00201276
0.00203557   -0.0139863   0.00200314
-0.00125455   -8.78437e-05   -0.000738572
5.60197e-05   0.00115917   -0.0003401
-0.00287792   0.00306117   0.000139988
-0.0039038   0.0059996   0.000673787
-0.00396401   0.00741793   0.000888085
-0.00371358   0.00869854   0.000991589
-0.00453795   0.00857236   0.00119029
-0.000223494   0.000959851   -0.000437741
0.00161405   0.00603434   0.000699416
-0.000739041   -0.000750234   -0.000751917
0.000328325   -0.00100347   -0.000485061
0.00112924   -9.84315e-05   -0.000857995
-0.00322293   -0.0105007   0.00187293
0.00540427   -0.0117946   0.00179349
-0.000661362   0.000515142   -0.000572789
0.000892525   -0.0144548   0.00210253
0.00103618   -0.000551257   -0.000713681
-0.00363873   0.00444878   0.000420681
0.00158439   0.00751937   0.00102457
-0.00424475   0.0090027   0.00116797
-0.00130306   0.00154758   -0.000306571
-0.00271818   0.00306266   0.000163084
0.000776454   0.000174174   -0.000799862
-0.00167197   -0.000421232   -0.000862291
-0.00330282   0.00986488   0.00115549
-0.00442789   0.00726439   0.00102294
0.00140833   0.00419541   0.000333051
0.000496903   0.00182184   -0.000151107
-0.00148424   -0.000536264   -0.000844176
0.000442144   -0.00170208   -0.000467214
-0.00300038   -0.00708296   0.00081678
0.00144659   -0.000314055   -0.000866055
0.000407595   0.000499511   -0.000766939
-0.000479455   0.00983241   0.00133994
-0.00270252   -0.00553377   0.000464132
-0.00246502   -0.0121108   0.00206421
-0.00360282   -0.012626   0.00245927
0.000233366   0.00966653   0.00141045
0.00125153   0.0083651   0.00121752
0.0047455   -0.0134648   0.00192289
-0.00116399   0.000122163   -0.000671944
0.00406644   -0.0148947   0.0021948
0.00302334   -0.0161806   0.00227398
0.00172337   -0.0168264   0.00249243
-0.00210266   -0.00410846   0.000236833
-0.000438662   -0.00175321   -0.000240495
0.00161676   -0.00266424   -4.01404e-05
0.00290926   -0.00391372   0.00050962
0.000923522   -0.000840399   -0.000669395
-0.00256985   0.0104196   0.0013325
-0.00121438   0.00967837   0.001281
0.000168946   0.00154226   -0.000276185
-0.00357323   0.00422901   0.000455826
-0.00417019   0.0059238   0.000747298
0.00156739   0.00913537   0.00139501
-0.000507345   0.00103845   -0.000551646
-0.00214657   0.00248977   -7.91446e-05
-0.00414789   0.0103055   0.00133972
0.00127843   -4.34492e-05   -0.000860943
-0.00164921   -0.000180832   -0.000743389
-0.00185239   -0.000504886   -0.000947021
-0.00314143   0.0114815   0.00154759
0.00582975   -0.0106186   0.00171946
0.00172056   0.00577499   0.00074375
0.00100241   0.00286402   6.25372e-05
-0.000312365   0.00109603   -0.000409879
0.00192396   0.00746608   0.00120067
-0.00105951   -0.000686544   -0.000803807
-0.00043302   -0.00105974   -0.000708699
-0.00333107   -0.0095255   0.00155127
0.000224137   -0.00138793   -0.000456396
0.00153081   -0.000170935   -0.000899168
0.0012561   9.1991e-05   -0.000890653
-0.000996965   0.0113666   0.00155627
0.000176252   -0.00165682   -0.000559387
-0.00310016   -0.0125234   0.0022394
0.000793311   0.00911245   0.00141544
0.00641707   -0.0136829   0.00222884
0.00579788   -0.014479   0.00221712
-0.00493402   0.00743705   0.00115028
-0.000946419   0.000507003   -0.000573812
0.000429884   -0.0172533   0.00288849
-0.00146056   -0.000674693   -0.000926731
-0.00221227   -0.0049445   0.000407013
-0.00122285   -0.00273117   -5.33966e-05
0.00137498   -0.00256205   -0.000140997
0.00281438   -0.00381808   0.000400001
0.00440161   -0.00584958   0.0009308
0.00160382   -0.000483456   -0.000832554
-0.00180276   0.0109903   0.00148128
0.00122958   0.0101068   0.00160062
0.000719238   0.00250932   -9.87552e-07
-0.00439062   0.00580373   0.000783534
0.00193623   0.00915133   0.00153035
-0.00497744   0.0105784   0.00150087
-0.00139878   0.00188563   -0.000339468
-0.00320481   0.00388439   0.000297034
-0.00390103   0.0118206   0.00156681
0.00178854   -0.000131403   -0.00094307
-0.0019278   -0.000375403   -0.000867944
-0.00256227   0.012359   0.00177157
0.00552754   -0.00830536   0.00116663
0.00566833   -0.00907524   0.00140869
0.00181812   0.00545871   0.000627823
-0.00520595   0.00906301   0.00133817
0.00131683   0.00381359   0.000303236
0.000304794   0.00204677   -0.000152815
0.00176219   0.010846   0.00178567
-0.000338402   0.00113064   -0.000612073
-0.000751055   -0.00106173   -0.000822052
-0.00328399   -0.0079138   0.000990111
-0.000480252   -0.00219725   -0.000287828
-0.00252241   0.0032541   1.40393e-05
-0.00481599   0.0124265   0.00175299
0.00192726   -0.000283089   -0.000955355
0.000869228   0.000475662   -0.000858078
-0.00174164   0.0130059   0.00184407
-3.65075e-05   0.0115665   0.00168192
0.00114679   -0.00248523   -0.00028659
-0.00286768   -0.00620281   0.000687119
-0.00236967   -0.0150799   0.00258722
-0.00439287   0.00558059   0.000805937
-0.000101672   0.0137004   0.00194825
0.000707969   0.0109415   0.00180116
0.00124905   0.0121848   0.00191223
-0.00341694   0.013549   0.00194513
0.00661604   -0.0123927   0.00224567
0.00211314   0.00735785   0.00109379
0.00529142   -0.016344   0.00272262
-0.00536988   0.00755564   0.00116574
-0.00599969   0.0113853   0.00161072
0.00104388   0.00343791   0.00017064
-0.000400835   0.00136944   -0.000325454
0.00224185   0.0114002   0.00187643
-0.00584489   0.0131596   0.00180141
-0.00157065   0.00246617   -0.000377824
0.000392065   -0.0201899   0.00397638
-0.00157761   4.22891e-05   -0.000677425
0.00232443   0.00935826   0.00156185
0.00429722   -0.0180036   0.00288871
0.00303794   -0.0192864   0.00321213
0.00167568   -0.0198946   0.00345456
-0.00200352   -0.000667114   -0.00105176
-0.00379757   -0.0112677   0.00188666
-0.00139019   -0.00347467   1.81643e-05
0.000617896   -0.00147901   -0.000655802
-0.00251444   0.00380793   -0.000178826
-0.00445785   0.0144802   0.00212835
0.00279108   -0.00375696   0.000156682
0.00413932   -0.00548478   0.000694119
0.0050327   -0.00717625   0.000912948
0.00609864   -0.00960184   0.00139163
0.00161255   -0.000760246   -0.000887565
0.00231666   -0.000222232   -0.00106257
0.001822   2.27579e-05   -0.0010138
-0.00207258   -0.000253217   -0.000820079
0.0015812   -0.00122535   -0.000966448
-0.000857219   0.0133493   0.00187929
-0.00223836   -0.0004519   -0.000981537
-0.000186905   -0.00162923   -0.000723999
-0.00331001   -0.0156458   0.00316177
-0.00397291   0.00507896   0.000635036
0.000629438   0.0130074   0.00196742
-0.00271349   0.0147246   0.0021113
0.00649662   -0.011154   0.00186799
0.00760663   -0.0163165   0.0032598
0.00227136   0.00716029   0.000938219
0.00690224   -0.0177454   0.00324366
-0.00589956   0.00948724   0.00143659
-0.00674331   0.0137118   0.00189262
0.00173159   0.00507661   0.000507249
0.000578988   0.00288664   -3.9098e-05
0.00182046   0.0132305   0.00208441
9.96177e-06   0.00127645   -0.000814705
-0.0025841   0.00434751   -0.000288037
-0.000965934   -0.0176351   0.00322807
-0.00133546   0.000515956   -0.000605085
0.0058189   -0.0202617   0.00370893
0.00446937   -0.0219767   0.00458352
0.00149993   -0.0235662   0.00483642
-0.00122857   -0.0010338   -0.000940574
-0.00360908   -0.00917282   0.00140664
0.00833551   -0.0206173   0.00388632
-0.000464741   -0.00274887   -0.000351145
0.000784632   -0.00209558   -0.000718998
-0.00327694   0.00443832   0.000295126
-0.00559249   0.0153426   0.00218871
0.00429714   -0.00561062   0.000471956
0.00539614   -0.0077074   0.000890122
0.00222522   -0.000429661   -0.00100362
0.00142818   0.000477203   -0.00112646
-0.00204183   -8.74441e-06   -0.000804176
0.00241877   -0.000715882   -0.00115912
-0.00178269   0.0152663   0.00210015
-0.000791744   0.0156005   0.00213208
0.000282094   0.015417   0.00219261
-0.0024618   -0.000354532   -0.000953757
0.000884264   -0.00245527   -0.000518344
-0.0029218   -0.00720617   0.000889503
0.00775187   -0.0133646   0.00255712
-0.00134907   -0.0210661   0.00426718
-0.00234252   -0.0185007   0.00366247
-0.0054387   0.00735221   0.00107882
0.00114954   0.0145963   0.00220207
-0.00386072   0.0163123   0.00240153
0.00783329   -0.0149865   0.00306519
0.0025652   0.00944436   0.00153818
-0.00369066   -0.0197346   0.00437899
0.00749816   -0.0230933   0.00465872
0.00280453   -0.00385028   6.50246e-06
0.00145114   0.00464853   0.000330678
-0.00650386   0.00984059   0.00143988
-0.00692977   0.0122072   0.00175493
-0.000983816   0.00121117   -0.00046953
0.0021893   0.00681651   0.000772513
-1.83145e-06   0.00240967   -0.00020289
0.00238059   0.0142413   0.00239251
-0.00681423   0.01599   0.00241599
-0.00420764   -0.0159903   0.00340295
-0.00111256   0.00256563   -0.00059429
-0.000141324   -0.0225715   0.00453203
-0.00183464   0.000458165   -0.000741243
0.00274297   0.00947817   0.00139345
0.00269619   0.0118866   0.00196569
-0.000734462   -0.0260234   0.00597883
-0.00242571   -0.0230961   0.00494664
-0.00455634   -0.021255   0.00485009
0.00625225   -0.0255187   0.00585792
0.0030588   -0.0229023   0.00484116
-0.000638177   -0.00160686   -0.000883366
0.00272828   -0.0038921   -0.000391985
0.00482948   -0.00601671   0.000318192
-0.00427364   -0.0129709   0.00249569
0.0093034   -0.019975   0.00382917
-0.00152371   0.00106845   -0.000678594
-0.00182215   -0.00489875   0.000151225
-0.000494822   -0.00375478   -0.000248894
0.00258372   -0.00214808   -0.00139017
-0.000692591   0.00209094   -0.000405399
-0.00510312   0.00693537   0.000832574
0.00100333   0.004179   0.00017309
-0.00669612   0.00987518   0.00129939
0.00171743   0.0161029   0.00264955
-0.00825347   0.0198862   0.00322634
-0.00515066   0.0177798   0.00271683
-0.00430476   0.0197538   0.00301639
0.00621819   -0.00850046   0.000867687
0.00710445   -0.0110334   0.00152787
-0.00482144   -0.0167506   0.00379942
0.000558065   0.00145024   -0.0011797
0.000980351   -0.0284363   0.00673796
0.00284234   -0.000395328   -0.00128813
0.00248154   -6.50047e-05   -0.0012663
-0.00256455   -6.11262e-05   -0.00106424
0.00238938   -0.00137781   -0.001338
0.00301111   0.0121714   0.00207189
-0.00290488   0.0174323   0.00253931
-0.00173985   0.0179046   0.00258898
0.000798916   0.0174182   0.00270089
-0.000544284   -0.032546   0.00727542
-0.00401944   -0.0254117   0.00544608
0.00885083   -0.029622   0.00658854
0.00488385   -0.0275029   0.00654183
0.00308924   -0.0280942   0.0065866
-0.00249036   -0.000598629   -0.00111273
-0.00187358   -0.00105229   -0.00111182
0.000543267   -0.00249325   -0.000801067
0.0053523   -0.00640759   0.000111678
-0.00372475   -0.0106314   0.00181232
0.0098223   -0.0262438   0.00515988
0.00194252   0.00643107   0.000647132
-0.0077468   0.0130091   0.00190351
-0.00802   0.016022   0.00250766
-0.00185373   -0.00644245   0.000413432
0.00113958   -0.00282338   -0.000798762
0.00276613   0.00927816   0.00130887
-0.00439515   0.00640894   0.000457412
0.000422006   0.0037459   -6.27068e-05
0.00239458   0.0178816   0.0031681
-0.00660718   0.0189283   0.00285086
0.00986305   -0.0181757   0.00343493
-0.00520492   -0.0210115   0.00495961
-0.00101468   0.0031911   -0.000974707
0.00336507   -0.0350161   0.00767986