# vtk DataFile Version 2.3
FEM Grid Data
ASCII
DATASET UNSTRUCTURED_GRID
POINTS 28959 float
-526185   -1.53048e+06   5.01694e+06
-50778.8   -1.37681e+06   4.41256e+06
-74015.3   -1.8988e+06   4.92592e+06
-149872   -2.16568e+06   4.23679e+06
-1.19938e+06   -1.78044e+06   5.31267e+06
-952779   -1.113e+06   5.08147e+06
-1.21683e+06   -1.80527e+06   4.82005e+06
-909908   -2.17288e+06   5.22337e+06
-794076   -1.80894e+06   5.37867e+06
-922229   -1.22497e+06   4.40823e+06
-478003   -1.0431e+06   5.16958e+06
-70857   -957782   4.97573e+06
-118895   -1.28308e+06   5.58323e+06
-574369   -1.15349e+06   5.58323e+06
-967492   -1.36162e+06   5.48114e+06
-400017   -1.6225e+06   5.48091e+06
-464739   -2.09257e+06   5.31395e+06
-53045.6   -2.17372e+06   -3.48351e+06
1.04495e+06   -1.99518e+06   -3.48061e+06
751766   -2.95117e+06   -3.97285e+06
832951   -2.30568e+06   -4.59536e+06
-201619   -2.95065e+06   -4.37616e+06
-223581   -2.81973e+06   -3.03469e+06
-846909   -2.43455e+06   -3.47e+06
80926   -2.23187e+06   -4.75467e+06
-626300   -2.01932e+06   -4.22319e+06
123098   -1.50647e+06   -3.94708e+06
-2.55128e+06   -474511   3.39756e+06
-2.19669e+06   -22015.4   4.08418e+06
-2.40174e+06   233207   3.19193e+06
-3.19623e+06   533982   3.44142e+06
-2.53701e+06   -1.26623e+06   4.46635e+06
-1.68532e+06   -1.12813e+06   3.74436e+06
-2.42625e+06   -496390   4.70757e+06
-2.1086e+06   -671392   2.71165e+06
-3.17683e+06   -597890   2.71408e+06
1.23189e+06   -1.7144e+06   4.90315e+06
1.28408e+06   -771360   4.49506e+06
2.03331e+06   -1.59108e+06   5.11537e+06
2.04555e+06   -1.51489e+06   4.53583e+06
-2.61201e+06   -1.29148e+06   2.77345e+06
-2.72404e+06   -1.29973e+06   3.6482e+06
1.78798e+06   2.85567e+06   947780
2.47323e+06   2.40025e+06   609872
1.93239e+06   2.917e+06   -83627
2.11813e+06   3.36987e+06   511166
-1.76858e+06   -418446   3.57109e+06
1.3732e+06   -1.63655e+06   -4.27257e+06
1.79692e+06   -1.79263e+06   -3.06863e+06
1.96893e+06   -2.54572e+06   -3.2912e+06
-221665   -304169   -5.10324e+06
-140904   -132090   -4.2766e+06
-586190   730934   -4.97612e+06
-933359   -322267   -3.98591e+06
-1.0692e+06   -1.3094e-10   -3.33269e+06
-1.22839e+06   776688   -3.18399e+06
-608949   386864   -3.99143e+06
-1.50448e+06   302157   -4.01461e+06
-1.27262e+06   1.27819e+06   -3.74991e+06
200837   655954   -4.57811e+06
-287216   1.09015e+06   -3.99691e+06
-2.14313e-10   -2.62458e-26   -3.5e+06
-1.4077e+06   -897017   5.48148e+06
-1.41089e+06   -1.38938e+06   5.37698e+06
-1.48434e+06   -1.23024e+06   4.93197e+06
-299905   -519957   4.60042e+06
-1.07676e+06   -561965   5.11693e+06
-654734   -422935   5.16787e+06
2.25682e+06   -3.06652e+06   -2.56776e+06
2.70411e+06   -2.18929e+06   -2.92881e+06
1.72247e+06   -2.45732e+06   -2.56198e+06
-952271   -868110   5.58323e+06
1.82344e+06   -4.23606e+06   -2.31095e+06
2.75324e+06   -3.7488e+06   -2.21891e+06
2.795e+06   -4.39498e+06   -2.38851e+06
2.31806e+06   -3.83873e+06   -2.86069e+06
2.8903e+06   -3.41878e+06   -1.19466e+06
3.52523e+06   -3.33825e+06   -1.95766e+06
3.15627e+06   -2.79679e+06   -2.27449e+06
3.16237e+06   -4.30649e+06   -2.07038e+06
2.57488e+06   -4.26272e+06   -1.57522e+06
2.05547e+06   -3.26627e+06   -1.78518e+06
-814525   -3.39665e+06   -3.80721e+06
-1.05971e+06   -2.78952e+06   -2.83681e+06
48671.5   -3.73937e+06   -3.76955e+06
391112   -3.19957e+06   -2.60542e+06
-1.38488e+06   2.79074e+06   2.64166e+06
-783563   2.02012e+06   3.33975e+06
-477065   2.65256e+06   3.73814e+06
-1.51043e+06   2.78638e+06   3.60959e+06
-1.37815e+06   2.13344e+06   2.40813e+06
-1.83762e+06   2.11771e+06   2.87022e+06
2.63198e+06   -2.3858e+06   -4.01003e+06
2.1722e+06   -3.28571e+06   -3.61733e+06
-1.37279e+06   2.4557e+06   4.38062e+06
-630265   1.77553e+06   4.35584e+06
-1.11156e+06   1.48321e+06   2.96893e+06
-1.42804e+06   1.13259e+06   3.7054e+06
-1.55992e+06   1.84661e+06   3.62682e+06
-70493.5   1.59129e+06   3.11654e+06
-533887   2.18592e+06   2.6808e+06
3.64041e+06   1.45774e+06   -1.10235e+06
3.59466e+06   1.74776e+06   13251
4.45119e+06   1.86704e+06   -498221
3.29533e+06   2.30193e+06   -685289
4.5782e+06   806132   -740449
3.67254e+06   510254   -1.60253e+06
4.15725e+06   954789   -2.22628e+06
4.13269e+06   2.13696e+06   -1.6139e+06
3.20077e+06   1.25176e+06   -2.30352e+06
3.07922e+06   2.39834e+06   -1.42858e+06
3.29434e+06   961057   -688266
4.81786e+06   1.77581e+06   -1.28705e+06
-2.02354e+06   3.26065e+06   875393
-3.23633e+06   3.56999e+06   436939
-2.38483e+06   3.93387e+06   743046
-2.34324e+06   3.41376e+06   40513.9
-2.52804e+06   3.62084e+06   1.91478e+06
-3.0923e+06   2.63763e+06   1.17313e+06
-2.3973e+06   2.27652e+06   1.14908e+06
-2.13638e+06   2.74234e+06   406754
-1.60215e+06   3.68284e+06   303810
-1.37195e+06   3.15667e+06   634958
-2.28667e+06   -2.49108e+06   -2.19331e+06
-2.46926e+06   -3.06405e+06   -1.50672e+06
-3.27023e+06   -2.62091e+06   -2.4517e+06
-2.88496e+06   -3.48625e+06   -2.66645e+06
-2.36901e+06   -1.30462e+06   -2.22166e+06
-2.36908e+06   -2.03293e+06   -1.58261e+06
-1.52726e+06   -2.49379e+06   -1.92315e+06
-1.80884e+06   -2.20403e+06   -2.83035e+06
-1.93798e+06   -3.64809e+06   -2.4648e+06
-1.79924e+06   -2.75831e+06   -1.18511e+06
2.59261e+06   3.92241e+06   -3.27505e+06
2.72372e+06   4.12847e+06   -2.89309e+06
2.27774e+06   3.87106e+06   -2.7563e+06
3.03122e+06   3.34306e+06   -2.62738e+06
3.02434e+06   4.12455e+06   -2.58348e+06
2.26627e+06   4.22936e+06   -2.23173e+06
2.178e+06   3.04421e+06   -2.39753e+06
2.57744e+06   4.40808e+06   -2.59972e+06
1.46849e+06   -3.38535e+06   -3.05432e+06
259847   3.56021e+06   2.30334e+06
-1.00243e+06   3.3375e+06   2.05004e+06
-909481   3.96478e+06   2.68821e+06
-239592   3.75332e+06   1.31839e+06
622268   2.87752e+06   3.13036e+06
390509   2.19639e+06   2.69692e+06
777275   2.68791e+06   2.10261e+06
1.2479e+06   -5.34932e+06   -1.63109e+06
1.77059e+06   -5.16361e+06   -1.74214e+06
1.39322e+06   -5.15803e+06   -2.0704e+06
1.49358e+06   -4.69021e+06   -1.70879e+06
317774   4.31436e+06   1.82868e+06
517073   4.61913e+06   2.58161e+06
1.21533e+06   3.80702e+06   2.44124e+06
1.23688e+06   2.89701e+06   2.46698e+06
678212   3.64627e+06   1.55034e+06
311961   3.07076e+06   1.65018e+06
-4.11639e+06   -13315.7   3.98598e+06
-4.36891e+06   187287   3.70276e+06
-4.11584e+06   476253   3.95802e+06
-3.58288e+06   -26192.3   3.89354e+06
-3.56608e+06   -721046   4.42675e+06
-2.97317e+06   -135076   4.33229e+06
-3.18985e+06   -558851   4.7271e+06
-3.42814e+06   -939489   3.89979e+06
-3.02996e+06   848559   4.25831e+06
-3.50579e+06   -177809   4.52888e+06
-3.41357e+06   272023   4.59417e+06
-4.13241e+06   154110   3.06637e+06
-3.81925e+06   816989   4.1927e+06
1.64812e+06   -4.39698e+06   -3.28378e+06
815346   -4.04821e+06   -2.9391e+06
-2.27089e+06   1.16043e+06   3.94514e+06
-1.76998e+06   38318.2   3.01922e+06
-1.72945e+06   379739   3.61726e+06
-1.5561e+06   -631825   4.86525e+06
-1.01683e+06   -127751   4.04263e+06
-2.20011e+06   -981089   5.19902e+06
-2.30024e+06   -469147   5.22702e+06
-1.69307e+06   -23129.9   4.77367e+06
1.75683e+06   -5.39709e+06   786009
1.97287e+06   -5.37007e+06   320915
1.28122e+06   -5.1519e+06   119510
2.24258e+06   -4.59852e+06   370713
1.99539e+06   1.93251e+06   2.12928e+06
2.49297e+06   2.87299e+06   2.56089e+06
1.47554e+06   2.69281e+06   3.11837e+06
2.16335e+06   1.87053e+06   3.05295e+06
889817   1.54465e+06   3.01202e+06
1.25537e+06   2.11629e+06   2.48905e+06
1.77159e+06   2.06497e+06   3.72543e+06
1.19431e+06   2.8097e+06   4.07048e+06
826950   1.96292e+06   3.59077e+06
-4.81132e+06   -2.77827e+06   -1.4019e+06
-4.74296e+06   -2.61558e+06   -1.86975e+06
-5.00707e+06   -2.31295e+06   -1.55318e+06
-4.74897e+06   -2.04241e+06   -1.2109e+06
-2.98994e+06   1.66862e+06   -725259
-3.73485e+06   1.32014e+06   -1.70535e+06
-4.03844e+06   2.03903e+06   -969969
-3.26316e+06   2.05982e+06   -1.42834e+06
-5.08179e+06   2.47565e+06   -937769
-4.97657e+06   2.47122e+06   -1.3999e+06
-4.2463e+06   2.7718e+06   -851029
-4.68664e+06   2.00645e+06   -488483
-3.46269e+06   2.11504e+06   124817
-3.49831e+06   2.97001e+06   -849445
-4.13106e+06   2.55765e+06   -1.76472e+06
-2.91016e+06   4.36985e+06   -74863.9
3.13745e+06   1.09067e+06   4.66902e+06
3.31192e+06   1.53684e+06   4.41613e+06
3.45754e+06   953528   3.77818e+06
2.82303e+06   1.39052e+06   3.49793e+06
3.93707e+06   652479   4.11177e+06
4.207e+06   1.14816e+06   3.71696e+06
3.66872e+06   197613   3.40909e+06
3.63258e+06   239777   4.42491e+06
3.03888e+06   191277   4.31468e+06
3.53005e+06   898201   4.42322e+06
3.4491e+06   2.03177e+06   4.09982e+06
3.75592e+06   1.36331e+06   4.10698e+06
1.38138e+06   -780715   -3.11966e+06
2.15255e+06   -833585   -2.6309e+06
2.40788e+06   -1.53495e+06   -3.81101e+06
1.24499e+06   -2.03951e+06   -2.55742e+06
1.99258e+06   -1.73374e+06   -2.29647e+06
888225   -1.50778e+06   -3.03112e+06
1.69894e+06   -2.61714e+06   -4.03694e+06
984552   873869   -3.85483e+06
716878   1.23844e+06   -5.05147e+06
313559   1.5389e+06   -3.89725e+06
1.68105e+06   871392   -4.95356e+06
1.00023e+06   410340   -4.9392e+06
1.0692e+06   -4.74822e-10   -3.33269e+06
1.34708e+06   798059   -3.13025e+06
2.07158e+06   604245   -3.37305e+06
534602   925958   -3.33269e+06
936509   123937   -4.05213e+06
2.07777e+06   413630   -4.35966e+06
1.65875e+06   1.45318e+06   -4.25741e+06
-4.2536e+06   -3.43145e+06   -1.72189e+06
-4.00818e+06   -3.53934e+06   -2.05924e+06
-4.2207e+06   -3.23034e+06   -2.14091e+06
-3.60071e+06   -3.52863e+06   -1.81333e+06
-4.09698e+06   -3.06318e+06   -1.54915e+06
-4.07517e+06   -2.40864e+06   -2.4077e+06
-4.00059e+06   -2.03894e+06   -1.64526e+06
-4.45777e+06   -2.85389e+06   -2.19466e+06
-3.48152e+06   -3.20057e+06   -1.1461e+06
-4.41616e+06   -2.73063e+06   -1.01114e+06
-3.18722e+06   -2.34869e+06   -996539
-4.52525e+06   -3.2705e+06   -1.28796e+06
-4.52267e+06   -3.04213e+06   -1.76742e+06
245445   -3.57225e+06   2.88188e+06
795164   -4.01675e+06   1.72564e+06
1.24301e+06   -4.5689e+06   2.20009e+06
[...]
POINT_DATA 28959
VECTORS displacement float
-0.000257478   0.000612219   -0.0001043
-0.000302597   5.90426e-05   -0.000448156
-0.000336273   0.000641995   0.000140398
-0.000290215   0.000169447   1.48201e-05
-0.000147151   0.000478892   -9.62324e-05
-0.000330901   0.000244223   -0.000461571
-0.000259494   0.000177359   -0.000225954
-0.000179209   0.000615027   6.11786e-05
-0.000130951   0.000816683   3.9195e-05
-0.000354343   -7.16598e-05   -0.000605529
-0.000264485   0.000621766   -0.000393239
-0.000405889   0.000437732   -0.000640176
-0.000233376   0.00208247   0.000447451
6.43574e-06   0.00138092   6.06718e-05
-8.15759e-05   0.000756757   -0.00019405
-0.000184705   0.00138573   0.000152879
-0.000205991   0.000944418   0.000217597
5.7384e-05   1.02023e-05   2.98353e-05
5.79304e-05   -3.73524e-06   8.27935e-05
6.77943e-05   3.83975e-06   6.23931e-05
0.000103664   1.15242e-05   6.88464e-05
9.22542e-05   2.11003e-05   1.51811e-05
2.80071e-05   4.46269e-06   1.85227e-05
5.37967e-05   1.70377e-05   -1.58116e-05
0.000116203   2.42811e-05   3.39014e-05
9.76182e-05   2.80449e-05   1.69508e-06
8.88153e-05   1.63435e-05   4.50091e-05
-0.000410825   -9.39103e-05   -0.000484948
-0.000445871   -9.06991e-05   -0.000637054
-0.000401856   -3.54675e-05   -0.000486851
-0.000365491   -2.19883e-05   -0.000348941
-0.00040363   -8.95521e-05   -0.000404114
-0.00038467   -0.000126329   -0.000540448
-0.00046793   -8.74589e-05   -0.000586181
-0.000423321   -0.000134548   -0.000500625
-0.000382526   -6.7149e-05   -0.000349064
-0.000534451   0.000377813   5.69054e-05
-0.000181354   -7.63225e-06   -0.000576803
-0.00055079   0.00025013   7.69804e-05
-0.000339922   3.56892e-05   -4.80142e-05
-0.000377302   -0.00011931   -0.000334649
-0.000387887   -9.71973e-05   -0.000370015
1.09498e-05   3.39482e-05   0.000127912
3.68387e-05   2.21789e-05   0.0001212
3.81629e-05   1.67312e-05   0.000156321
2.21323e-05   2.27246e-05   0.000161889
-0.000437007   -0.0001135   -0.000725964
9.57784e-05   1.64698e-06   9.68722e-05
4.48854e-05   -1.90138e-05   0.000112337
4.04399e-05   -2.16471e-05   0.000113421
0.000160683   4.08359e-05   4.11355e-05
0.000125654   2.98159e-05   4.78693e-05
0.000172226   4.91735e-05   3.9174e-05
0.000112024   3.66135e-05   7.81407e-06
8.45209e-05   3.00899e-05   4.6569e-06
9.14772e-05   3.45078e-05   9.28106e-06
0.000122607   3.52305e-05   3.36948e-05
0.000125611   4.84408e-05   -1.24364e-05
0.000128187   4.54721e-05   1.62187e-05
0.00014906   3.18069e-05   7.29789e-05
0.000133152   3.36603e-05   5.92544e-05
9.37236e-05   1.88742e-05   5.5744e-05
-0.000365243   8.02724e-05   -0.000663806
-0.0002204   0.000260241   -0.000332199
-0.000350204   -2.15229e-06   -0.000497553
-0.000478596   -0.000354581   -0.00184098
-0.000594246   -0.000157623   -0.00119543
-0.000650878   -0.000349137   -0.00178948
2.57582e-06   -3.73836e-05   0.000121463
3.16783e-05   -3.77928e-05   0.000136389
1.37439e-05   -2.6514e-05   0.000107222
-0.000131916   0.000529158   -0.00048974
-2.57364e-05   -3.50986e-05   0.000104004
-2.3898e-05   -5.34836e-05   0.000134442
-2.97229e-05   -5.3465e-05   0.000133293
2.94573e-07   -3.64363e-05   0.0001197
-5.18314e-05   -7.15642e-05   0.00013993
-2.56023e-05   -7.30511e-05   0.000153322
-2.54306e-06   -5.84066e-05   0.000145409
-4.16505e-05   -6.57602e-05   0.000144104
-5.74268e-05   -5.98448e-05   0.00013054
-2.9367e-05   -4.53536e-05   0.000116887
6.38953e-05   1.94428e-05   -1.89028e-05
2.03252e-05   8.26478e-06   -2.50289e-05
5.39389e-05   8.61416e-06   2.45235e-05
3.87445e-06   -7.92121e-06   4.95473e-05
-0.000147932   1.35616e-05   2.66581e-05
-0.000188795   -2.11038e-05   -0.000135044
-0.000138873   -0.000172745   9.27085e-05
-0.000142046   -0.00014159   7.87448e-05
-0.000173499   7.68309e-05   -0.000109183
-0.000211029   1.89095e-05   -0.000115223
6.73615e-05   -2.55729e-05   0.000133446
3.92515e-05   -2.39996e-05   0.000116049
-9.63845e-05   -0.000330426   8.82755e-05
-0.000141708   -0.000263097   -0.000174447
-0.000277067   0.000103884   -0.00040919
-0.00029637   -1.5546e-05   -0.000580985
-0.000217999   -5.88586e-05   -0.000204669
-0.000190141   0.000131949   -0.0004733
-0.000154385   8.05028e-05   -9.11767e-05
6.25906e-05   -2.94474e-05   0.000156847
5.43022e-05   -1.92926e-05   0.000137461
6.05337e-05   -3.64686e-05   0.000163395
6.13322e-05   -9.54919e-06   0.000158143
5.08973e-05   -5.96476e-05   0.000158788
5.61318e-05   -4.26691e-05   0.000156239
7.3476e-05   -4.27946e-05   0.000173275
7.57037e-05   -2.8922e-05   0.000177184
7.87985e-05   -2.33924e-05   0.000162423
7.23332e-05   -1.04858e-05   0.000166561
5.16603e-05   -3.02685e-05   0.000140137
6.8304e-05   -4.63923e-05   0.000178327
-4.50486e-05   2.07283e-05   2.26873e-05
-2.52658e-05   4.35841e-05   -4.36857e-05
-2.73648e-05   2.42416e-05   2.98458e-05
1.45697e-06   2.39572e-05   1.19688e-05
-9.54282e-05   1.75676e-05   2.39205e-05
-0.000110361   4.73472e-05   -8.41534e-05
-0.000119232   3.86022e-05   -6.03429e-05
0   0   0
-8.8111e-06   2.44861e-05   6.59492e-05
-2.71813e-05   2.60715e-05   6.47721e-05
-1.06873e-05   1.11822e-05   -9.73868e-05
-5.29031e-05   -5.64504e-06   -0.000115762
4.92596e-06   2.70902e-05   -0.000165465
1.2531e-05   2.18694e-05   -0.00014585
-4.95046e-07   2.03643e-05   -8.90515e-05
-4.69768e-05   6.95881e-07   -9.94953e-05
-2.61166e-05   -2.48469e-06   -4.72111e-05
2.55972e-05   1.92971e-05   -6.42525e-05
-5.28352e-07   9.27751e-06   -8.36688e-05
-6.94919e-05   -1.70814e-05   -6.63699e-05
0.000127324   4.93464e-06   0.000187377
0.000115888   2.82314e-06   0.000191924
0.000111613   5.17142e-06   0.000180953
0.000103545   -4.97613e-06   0.000186072
0.000105551   -1.13416e-06   0.000196228
9.69055e-05   5.63835e-06   0.000185762
9.6088e-05   1.79573e-06   0.00016738
0.000108523   4.22109e-06   0.00019315
1.86129e-05   -1.80143e-05   9.26637e-05
-8.07405e-05   -3.19333e-06   0.000166288
-9.59143e-05   1.84266e-05   9.91265e-05
-0.000102486   -5.85278e-05   0.000183083
-4.56395e-05   2.60415e-05   0.000141048
-0.000117894   -2.52459e-05   9.60929e-05
-9.87727e-05   0.000120636   -0.000115808
-5.17734e-05   6.37842e-05   3.89726e-05
-6.53237e-05   -3.57376e-05   8.09955e-05
-6.21012e-05   -4.28276e-05   0.000101299
-4.55236e-05   -3.23794e-05   8.46763e-05
-5.52139e-05   -3.81605e-05   9.36375e-05
-5.81766e-05   -4.39183e-06   0.000195464
-8.88133e-05   -6.93203e-05   0.000250018
-7.48687e-05   -1.45477e-05   0.000196729
-5.65185e-05   2.83223e-05   8.57135e-05
-4.10415e-05   2.59451e-05   0.000159852
-5.40122e-05   3.92415e-05   0.000106414
-0.000380536   -3.40114e-05   -0.000340218
-0.000364768   -2.04836e-05   -0.000316643
-0.00035429   -2.5494e-05   -0.000311308
-0.000396006   -4.06149e-05   -0.000368564
-0.000406414   -6.32767e-05   -0.000367099
-0.000426215   -7.57516e-05   -0.000473907
-0.000420773   -6.90748e-05   -0.000417424
-0.000396802   -6.84241e-05   -0.000354498
-0.000332241   -6.21701e-05   -0.00033701
-0.000397082   -6.12276e-05   -0.000385113
-0.000371431   -6.61728e-05   -0.00037134
-0.00035502   -1.59445e-05   -0.000311907
-0.00032997   -4.1102e-05   -0.000296852
1.34249e-05   -2.0957e-05   9.23638e-05
8.23168e-06   -1.08323e-05   6.24908e-05
-0.000303423   -6.07943e-05   -0.000352635
-0.000476812   -6.41005e-05   -0.000704176
-0.000404815   -5.29746e-05   -0.000739203
-0.000510895   -0.000135642   -0.000882473
-0.000485977   -0.000116696   -0.00127929
-0.000401891   -4.6887e-05   -0.000540599
-0.000458905   -9.91482e-05   -0.000628515
-0.000548126   -0.000135916   -0.000948521
-0.000169568   -6.84816e-05   0.000135949
-0.000150575   -7.01501e-05   0.000132969
-0.000136625   -5.92448e-05   0.000104934
-0.000137153   -8.17881e-05   0.000140511
2.35694e-05   6.16721e-05   -4.01494e-05
-2.90685e-05   4.86345e-06   0.000117127
-8.31621e-05   -1.22509e-05   6.76321e-05
-2.06957e-05   8.53483e-06   -6.47182e-05
-4.72004e-05   0.000123764   -0.000384965
-2.38407e-05   8.53531e-05   -0.000116784
-9.64516e-05   -5.29269e-05   -7.48072e-05
-0.000182297   -0.000229642   0.000148174
-0.000101105   -2.40639e-05   -0.000200566
-6.4662e-05   2.10041e-05   -0.000287975
-3.22178e-05   3.23816e-05   -0.000277436
-5.35742e-05   3.29213e-05   -0.0002975
-7.6814e-05   2.46664e-05   -0.000278918
-3.28488e-05   3.9172e-05   -8.60123e-05
1.85517e-05   6.23926e-05   -0.000138903
-7.53105e-06   6.84177e-05   -0.000146881
2.43072e-05   5.60192e-05   -8.86593e-05
4.53746e-06   9.80242e-05   -0.000206805
3.30591e-05   9.93668e-05   -0.000196171
1.20412e-05   7.78157e-05   -0.000137747
-4.20966e-05   8.03274e-05   -0.00019764
-7.19843e-05   5.119e-05   -0.000117317
2.30069e-05   5.99438e-05   -7.90088e-05
5.78895e-05   8.26418e-05   -0.000131771
2.33254e-05   3.84668e-05   4.48071e-06
-0.00010622   -0.000106529   -0.000108209
-0.000106705   -9.74665e-05   -1.55808e-05
-3.1026e-05   -7.19717e-05   -4.00499e-05
-1.79223e-05   -3.65984e-05   -8.88159e-05
-6.7655e-05   -9.87477e-05   -5.73446e-07
-3.90118e-05   -8.8006e-05   5.58488e-05
-2.05348e-05   -9.62043e-05   -2.89637e-05
-9.71837e-05   -0.00010541   -6.07857e-05
-6.78901e-05   -9.97211e-05   -0.000179459
-8.8302e-05   -9.76652e-05   -4.63325e-05
-9.67917e-05   -8.96087e-05   5.51402e-05
-7.04382e-05   -8.89087e-05   2.25199e-05
6.6607e-05   -7.08149e-06   0.000103686
5.13339e-05   -2.38424e-05   0.000125868
7.52993e-05   -2.02299e-05   0.000131895
1.98691e-05   -1.86565e-05   9.10448e-05
2.242e-05   -3.13379e-05   0.000118299
4.84215e-05   -5.30965e-06   7.89394e-05
6.97492e-05   -9.16927e-06   0.000102574
0.000120416   1.37629e-05   0.00010692
0.000173071   3.18116e-05   0.000100235
0.000134074   2.63211e-05   9.06447e-05
0.000158187   1.49328e-05   0.000128736
0.000155701   2.30159e-05   0.000100987
8.87363e-05   3.42155e-06   9.90573e-05
9.47164e-05   3.02208e-06   0.000117308
9.77569e-05   -6.34606e-06   0.000137927
0.00010275   1.49376e-05   9.03006e-05
0.000116474   1.30052e-05   9.59613e-05
0.000127709   8.78786e-07   0.000136916
0.0001398   1.07041e-05   0.000135365
-4.23885e-05   1.5178e-05   -0.000248163
-2.16722e-05   1.95311e-05   -0.000228949
-1.61103e-05   2.61426e-05   -0.000241688
-3.66032e-05   9.67927e-06   -0.00019995
-5.3183e-05   1.249e-05   -0.00023455
3.04586e-06   3.77709e-05   -0.000222319
-4.54892e-05   2.29332e-05   -0.000219199
-1.14585e-05   3.36228e-05   -0.000255626
-7.77843e-05   -6.14002e-06   -0.000192207
-9.13386e-05   5.87377e-06   -0.000261097
-8.81762e-05   -6.29118e-06   -0.000167537
-7.08939e-05   9.03625e-06   -0.000270667
-3.93019e-05   2.30602e-05   -0.00026511
-0.000235249   -5.18809e-05   0.000114006
-0.00018861   -8.11867e-05   0.000112319
-0.000221793   -5.53194e-05   0.000165816
-0.000247905   -2.55645e-05   0.00013799
-0.00025493   -1.70179e-05   0.00018362
-0.000242617   -2.69559e-05   0.000152703
-0.000287578   4.51591e-05   0.000203235
-0.000264703   1.05649e-06   0.000174002
-0.000271583   4.34799e-06   0.000197293
-0.000250807   -1.54082e-05   0.000138517
-0.00021199   -5.1951e-05   0.000101256
1.09859e-05   4.78065e-05   -0.000145241
-5.58266e-05   4.4331e-05   -0.000183763
2.15473e-05   7.11011e-05   -0.000197977
-3.68376e-05   5.66011e-05   -0.000242777
-4.03386e-05   2.81175e-05   -0.000136694
-3.65273e-05   -6.99413e-05   0.000128066
-1.52172e-05   -7.02053e-05   0.000144332
-4.98011e-05   -0.000100656   0.000144581
-3.4948e-05   3.73599e-05   -0.000121656
4.03173e-05   3.7628e-05   -7.14305e-05
4.67173e-06   3.08264e-05   -0.000103348
6.31755e-05   5.81064e-05   -0.000143241
5.96345e-06   3.94029e-05   -0.000173705
1.20271e-05   5.99832e-05   -0.00021389
0.000113042   -3.14299e-05   0.000184437
0.000107161   -2.56259e-05   0.000179238
0.00011445   -2.19052e-05   0.000169842
8.81094e-05   -3.07195e-05   0.00016965
-3.57845e-05   -3.48719e-05   8.45409e-05
-6.21598e-05   -4.97044e-05   9.86658e-05
-4.56867e-05   -3.182e-05   8.06793e-05
0.000123718   -2.35007e-05   0.000179791
0.000133947   -1.51724e-05   0.000178086
-8.94362e-05   2.13281e-05   -0.00030924
-7.10453e-05   3.62971e-05   -0.000313177
0.00014337   -7.96167e-06   0.000164626
0.000121759   -1.28301e-05   0.000154508
0.000121276   -5.64508e-06   0.000156967
0.000134162   -1.56152e-05   0.000172871
0.000129976   -1.75829e-05   0.000167289
0.000144444   -7.36511e-06   0.000170328
3.42108e-05   1.19438e-05   0.000150612
5.31202e-05   1.67818e-05   0.000146645
3.17951e-05   8.58799e-06   0.000169428
1.30241e-05   1.13913e-05   0.000149684
5.73353e-05   2.17212e-05   0.000119419
7.26238e-05   2.79043e-05   9.51866e-05
7.6877e-05   1.90964e-05   0.000145335
4.75906e-05   2.13587e-05   0.000116419
6.50494e-05   1.64381e-05   0.000155728
8.25668e-05   2.13757e-05   0.000140736
5.20974e-05   1.71578e-05   0.000135312
6.6911e-05   1.95217e-05   0.000139458
6.60065e-05   1.4099e-05   0.000169601
4.69363e-05   1.10888e-05   0.000173216
3.69776e-05   1.49008e-05   0.000160495
-0.000681258   -0.000454078   -0.00429056
5.84473e-06   1.95838e-05   -0.00208178
-0.000346607   2.99213e-05   -0.00159308
-0.000204769   -0.000138462   -0.00101162
0.000396535   -3.90397e-05   -0.00433441
6.39151e-05   -4.53802e-05   -0.0011667
-4.71469e-05   -0.000104923   -0.000934042
0.000210796   -4.00752e-05   -0.00170926
-0.000232221   -6.10287e-05   -0.00138343
-0.000101989   1.33478e-05   -0.000980075
-8.67453e-07   -4.83361e-05   -0.00128273
-0.000130381   -0.000119063   -0.00119182
0.000177908   -0.000159168   -0.00183715
-1.3221e-05   -2.477e-05   8.7413e-05
-5.71574e-06   -1.87351e-05   7.01436e-05
-3.46323e-05   -1.99495e-05   4.005e-05
-1.95311e-05   -1.10124e-05   2.97359e-05
-0.000211633   -5.29558e-05   -0.0002391
-0.000195193   -2.95783e-05   -0.000284086
-0.000133265   -1.57176e-05   -0.000241729
-0.000159208   -2.9107e-05   -0.000258135
-0.000235598   -4.78641e-05   -0.000295031
-0.000265061   -5.52222e-05   -0.000277828
-0.000243763   -6.55424e-05   -0.000244329
-0.000256505   -5.9682e-05   -0.000275592
-0.000261501   -8.02361e-05   -0.000214733
4.48202e-05   1.77812e-05   0.000143595
2.13728e-05   1.35304e-05   0.000185431
-6.83558e-06   2.11154e-05   0.000155665
-0.000221114   -3.05456e-05   -0.000268857
-0.000188734   -4.86573e-05   -0.000201843
2.62414e-06   -7.94941e-06   -0.000704445
6.01243e-05   8.36965e-06   0.000199811
7.25751e-05   1.09705e-05   0.000189807
7.51742e-05   8.57124e-06   0.000196786
5.08368e-05   1.0746e-05   0.000183861
3.03379e-05   -0.000122134   -0.000959663
9.38144e-05   2.72339e-05   -0.000639235
-4.02554e-05   0.000112479   -0.000939714
-0.000105253   -4.20298e-05   7.4243e-05
-8.53481e-05   -3.967e-05   7.72053e-05
-8.73081e-05   -3.38843e-05   5.2662e-05
-8.97985e-05   -3.8521e-05   6.66552e-05
6.87782e-05   1.89776e-05   1.84361e-05
7.17762e-05   3.07201e-05   -3.35777e-05
0.000106019   2.82011e-05   2.5671e-05
0.000128328   5.0506e-05   -4.66928e-05
9.55057e-05   4.50104e-05   -4.49142e-05
0.000162302   6.282e-05   -3.19015e-05
0.000153326   4.88489e-05   -1.10696e-06
0.000176646   5.91261e-05   1.95458e-05
4.67241e-05   6.48816e-05   -0.00024625
5.04762e-05   5.84565e-05   -0.000230647
6.96455e-05   6.80351e-05   -0.000224568
4.27796e-05   6.11451e-05   -0.000214229
7.15497e-05   5.04723e-05   -0.00017629
8.42048e-05   5.91622e-05   -0.000183171
4.58033e-05   5.04421e-05   -0.000193826
5.20227e-05   4.39778e-05   -0.000142657
3.03312e-05   5.73509e-05   -0.000252509
7.41545e-05   -2.70532e-05   0.000192926
8.50746e-05   -1.60552e-05   0.000187347
6.82728e-05   -8.38093e-06   0.000186087
-4.59239e-06   4.75885e-05   -0.000248136
3.49316e-05   4.70464e-05   -0.000225549
-0.000154908   -1.42333e-05   -0.000302646
-0.000153208   -4.07476e-06   -0.000315932
-0.00020518   -4.17417e-05   -0.000285307
-0.000241326   -3.61135e-05   -0.000317643
-0.000130922   -3.41508e-05   -0.000179137
-0.000180267   -2.80503e-05   -0.000296552
-0.00018541   -0.00010299   8.56846e-05
-0.000239401   -5.90188e-05   0.000188155
-0.000202509   -9.69143e-05   0.000174714
-0.000259731   -4.3017e-05   0.000162443
4.96927e-05   1.10693e-05   0.00018312
-0.000126481   -0.000138789   8.92448e-05
-8.19457e-05   -0.00014839   -6.42236e-05
-0.000262261   -3.96909e-05   0.000109234
-0.000170869   -0.00010799   0.000116334
-0.0003109   7.64461e-05   0.000209925
-0.000279537   -5.07705e-07   6.47465e-05
-0.000219048   -8.28052e-05   7.93788e-05
8.35095e-05   1.6891e-05   0.00016502
9.99051e-05   1.88645e-05   0.000161996
8.60238e-05   1.42916e-05   0.000177186
7.55435e-05   1.59374e-05   0.000155475
8.75355e-05   1.15388e-05   0.000187096
9.23873e-05   1.34126e-05   0.000173625
-7.46256e-05   -1.35022e-05   -0.00018021
-4.95841e-05   -4.65604e-06   -0.000165152
-4.03963e-05   1.02909e-06   -0.000157326
-8.20614e-05   -1.90206e-05   -0.000133223
-5.49955e-05   -3.37797e-06   -0.000193316
-3.57955e-05   6.84944e-06   -0.000203021
-1.28381e-05   1.40895e-05   -0.000186522
-3.09144e-05   4.61179e-06   -0.000176993
-3.95113e-05   -3.52069e-06   -0.00012035
-2.60564e-05   3.42251e-06   -0.000149786
-4.37702e-06   1.04377e-05   -0.000134508
-8.17624e-06   1.21529e-05   -0.000161458
8.05654e-05   8.02211e-06   0.00014569
7.85795e-05   8.15395e-06   0.000159405
9.96965e-05   9.45887e-06   0.000144684
8.95928e-05   1.53902e-05   0.000142976
6.17671e-05   1.27921e-05   0.000158413
7.88513e-05   8.89233e-06   0.00017574
7.2174e-05   9.81491e-07   0.000155433
7.4679e-05   1.40516e-06   0.000169676
7.13206e-05   1.4903e-05   0.00013661
5.99909e-05   8.80769e-06   0.000157295
0.000166296   3.04736e-05   0.000112152
0.000125694   2.13079e-05   0.000109757
0.000165109   3.15485e-05   0.000124403
0.000179561   4.22233e-05   9.24444e-05
0.000161138   2.34351e-05   0.000137634
0.000123433   1.43558e-05   0.000118898
0.000175839   4.3408e-05   7.26333e-05
0.000192376   4.10294e-05   0.000111373
0.000195713   4.1466e-05   0.000105534
5.51796e-05   -3.95564e-05   0.00017908
5.31647e-05   -1.08635e-05   0.00016333
5.57627e-05   -2.69386e-05   0.000186643
6.31843e-05   -2.44361e-05   0.000180052
5.02891e-05   -8.25457e-05   0.000177406
5.97618e-05   -7.33677e-05   0.000181886
4.85771e-05   -8.4941e-05   0.000179133
5.4054e-05   -6.89811e-05   0.000172193
5.09596e-05   -3.23344e-05   0.000146628
6.01024e-05   8.85084e-07   0.000155943
6.5427e-05   -4.32903e-05   0.000183473
7.18876e-05   -3.78489e-05   0.000188383
6.28913e-05   4.17991e-06   0.000205575
6.24572e-05   6.43798e-06   0.000203753
7.57592e-05   6.33081e-06   0.000200906
6.8167e-05   6.55234e-06   0.000193336
6.81896e-05   -2.0555e-05   0.000194297
5.85784e-05   -4.87556e-05   0.000178044
6.12302e-05   -3.5622e-05   0.000184231
1.89446e-05   3.39128e-05   2.71458e-05
4.10476e-05   3.97045e-05   1.94506e-05
-5.05052e-07   2.4011e-05   5.4664e-05
2.2213e-06   3.68854e-05   4.05554e-06
7.01643e-06   4.92663e-05   -3.1545e-05
-2.15036e-05   3.3994e-05   -3.52941e-06
2.9609e-05   5.62223e-05   -3.77115e-05
3.26649e-05   5.37894e-05   -3.98245e-05
4.71371e-05   5.02886e-05   -1.08572e-05
-0.000283401   -2.59078e-05   -6.89851e-05
-0.000126454   -6.87543e-05   -0.000308892
-0.000197338   -7.79618e-05   -6.7006e-05
-7.50908e-05   -0.000116882   -0.000181155
-3.40342e-05   -3.09038e-05   -0.000801317
-3.33819e-05   -6.03571e-05   -0.000665493
2.48707e-05   -4.98957e-05   -0.000714098
-1.09039e-05   -6.55812e-05   -0.000375787
-7.74661e-05   -0.0001313   -0.000499293
-8.3731e-05   -5.65782e-05   -0.000507485
-0.000181326   -4.26474e-05   -0.000336163
-0.000304588   2.99925e-05   -0.000329183
-0.000286145   -3.15975e-06   -0.000186725
-0.0003102   4.03619e-05   -0.000349784
-0.00015618   -0.000140959   -0.000156967
-0.000336393   0.00011597   -0.000181226
-9.10046e-05   -0.000175881   -0.000124292
-0.000148365   -0.00015425   -4.02059e-05
-0.000109769   -0.000235006   -0.000768317
-1.67839e-05   -0.000214617   -0.000524702
-0.000190855   -7.63676e-05   -3.44099e-05
-0.000605986   -0.000427462   -0.00122955
-0.000361233   -0.000208673   -0.000713439
-0.000217039   -0.000420882   -0.00065757
-0.00066512   -0.000193526   -0.00184335
6.20253e-05   -0.000615659   -0.0002409