# vtk DataFile Version 2.3
FEM Grid Data
ASCII
DATASET UNSTRUCTURED_GRID
POINTS 28959 float
-526185   -1.53048e+06   5.01694e+06
-50778.8   -1.37681e+06   4.41256e+06
-74015.3   -1.8988e+06   4.92592e+06
-149872   -2.16568e+06   4.23679e+06
-1.19938e+06   -1.78044e+06   5.31267e+06
-952779   -1.113e+06   5.08147e+06
-1.21683e+06   -1.80527e+06   4.82005e+06
-909908   -2.17288e+06   5.22337e+06
-794076   -1.80894e+06   5.37867e+06
-922229   -1.22497e+06   4.40823e+06
-478003   -1.0431e+06   5.16958e+06
-70857   -957782   4.97573e+06
-118895   -1.28308e+06   5.58323e+06
-574369   -1.15349e+06   5.58323e+06
-967492   -1.36162e+06   5.48114e+06
-400017   -1.6225e+06   5.48091e+06
-464739   -2.09257e+06   5.31395e+06
-53045.6   -2.17372e+06   -3.48351e+06
1.04495e+06   -1.99518e+06   -3.48061e+06
751766   -2.95117e+06   -3.97285e+06
832951   -2.30568e+06   -4.59536e+06
-201619   -2.95065e+06   -4.37616e+06
-223581   -2.81973e+06   -3.03469e+06
-846909   -2.43455e+06   -3.47e+06
80926   -2.23187e+06   -4.75467e+06
-626300   -2.01932e+06   -4.22319e+06
123098   -1.50647e+06   -3.94708e+06
-2.55128e+06   -474511   3.39756e+06
-2.19669e+06   -22015.4   4.08418e+06
-2.40174e+06   233207   3.19193e+06
-3.19623e+06   533982   3.44142e+06
-2.53701e+06   -1.26623e+06   4.46635e+06
-1.68532e+06   -1.12813e+06   3.74436e+06
-2.42625e+06   -496390   4.70757e+06
-2.1086e+06   -671392   2.71165e+06
-3.17683e+06   -597890   2.71408e+06
1.23189e+06   -1.7144e+06   4.90315e+06
1.28408e+06   -771360   4.49506e+06
2.03331e+06   -1.59108e+06   5.11537e+06
2.04555e+06   -1.51489e+06   4.53583e+06
-2.61201e+06   -1.29148e+06   2.77345e+06
-2.72404e+06   -1.29973e+06   3.6482e+06
1.78798e+06   2.85567e+06   947780
2.47323e+06   2.40025e+06   609872
1.93239e+06   2.917e+06   -83627
2.11813e+06   3.36987e+06   511166
-1.76858e+06   -418446   3.57109e+06
1.3732e+06   -1.63655e+06   -4.27257e+06
1.79692e+06   -1.79263e+06   -3.06863e+06
1.96893e+06   -2.54572e+06   -3.2912e+06
-221665   -304169   -5.10324e+06
-140904   -132090   -4.2766e+06
-586190   730934   -4.97612e+06
-933359   -322267   -3.98591e+06
-1.0692e+06   -1.3094e-10   -3.33269e+06
-1.22839e+06   776688   -3.18399e+06
-608949   386864   -3.99143e+06
-1.50448e+06   302157   -4.01461e+06
-1.27262e+06   1.27819e+06   -3.74991e+06
200837   655954   -4.57811e+06
-287216   1.09015e+06   -3.99691e+06
-2.14313e-10   -2.62458e-26   -3.5e+06
-1.4077e+06   -897017   5.48148e+06
-1.41089e+06   -1.38938e+06   5.37698e+06
-1.48434e+06   -1.23024e+06   4.93197e+06
-299905   -519957   4.60042e+06
-1.07676e+06   -561965   5.11693e+06
-654734   -422935   5.16787e+06
2.25682e+06   -3.06652e+06   -2.56776e+06
2.70411e+06   -2.18929e+06   -2.92881e+06
1.72247e+06   -2.45732e+06   -2.56198e+06
-952271   -868110   5.58323e+06
1.82344e+06   -4.23606e+06   -2.31095e+06
2.75324e+06   -3.7488e+06   -2.21891e+06
2.795e+06   -4.39498e+06   -2.38851e+06
2.31806e+06   -3.83873e+06   -2.86069e+06
2.8903e+06   -3.41878e+06   -1.19466e+06
3.52523e+06   -3.33825e+06   -1.95766e+06
3.15627e+06   -2.79679e+06   -2.27449e+06
3.16237e+06   -4.30649e+06   -2.07038e+06
2.57488e+06   -4.26272e+06   -1.57522e+06
2.05547e+06   -3.26627e+06   -1.78518e+06
-814525   -3.39665e+06   -3.80721e+06
-1.05971e+06   -2.78952e+06   -2.83681e+06
48671.5   -3.73937e+06   -3.76955e+06
391112   -3.19957e+06   -2.60542e+06
-1.38488e+06   2.79074e+06   2.64166e+06
-783563   2.02012e+06   3.33975e+06
-477065   2.65256e+06   3.73814e+06
-1.51043e+06   2.78638e+06   3.60959e+06
-1.37815e+06   2.13344e+06   2.40813e+06
-1.83762e+06   2.11771e+06   2.87022e+06
2.63198e+06   -2.3858e+06   -4.01003e+06
2.1722e+06   -3.28571e+06   -3.61733e+06
-1.37279e+06   2.4557e+06   4.38062e+06
-630265   1.77553e+06   4.35584e+06
-1.11156e+06   1.48321e+06   2.96893e+06
-1.42804e+06   1.13259e+06   3.7054e+06
-1.55992e+06   1.84661e+06   3.62682e+06
-70493.5   1.59129e+06   3.11654e+06
-533887   2.18592e+06   2.6808e+06
3.64041e+06   1.45774e+06   -1.10235e+06
3.59466e+06   1.74776e+06   13251
4.45119e+06   1.86704e+06   -498221
3.29533e+06   2.30193e+06   -685289
4.5782e+06   806132   -740449
3.67254e+06   510254   -1.60253e+06
4.15725e+06   954789   -2.22628e+06
4.13269e+06   2.13696e+06   -1.6139e+06
3.20077e+06   1.25176e+06   -2.30352e+06
3.07922e+06   2.39834e+06   -1.42858e+06
3.29434e+06   961057   -688266
4.81786e+06   1.77581e+06   -1.28705e+06
-2.02354e+06   3.26065e+06   875393
-3.23633e+06   3.56999e+06   436939
-2.38483e+06   3.93387e+06   743046
-2.34324e+06   3.41376e+06   40513.9
-2.52804e+06   3.62084e+06   1.91478e+06
-3.0923e+06   2.63763e+06   1.17313e+06
-2.3973e+06   2.27652e+06   1.14908e+06
-2.13638e+06   2.74234e+06   406754
-1.60215e+06   3.68284e+06   303810
-1.37195e+06   3.15667e+06   634958
-2.28667e+06   -2.49108e+06   -2.19331e+06
-2.46926e+06   -3.06405e+06   -1.50672e+06
-3.27023e+06   -2.62091e+06   -2.4517e+06
-2.88496e+06   -3.48625e+06   -2.66645e+06
-2.36901e+06   -1.30462e+06   -2.22166e+06
-2.36908e+06   -2.03293e+06   -1.58261e+06
-1.52726e+06   -2.49379e+06   -1.92315e+06
-1.80884e+06   -2.20403e+06   -2.83035e+06
-1.93798e+06   -3.64809e+06   -2.4648e+06
-1.79924e+06   -2.75831e+06   -1.18511e+06
2.59261e+06   3.92241e+06   -3.27505e+06
2.72372e+06   4.12847e+06   -2.89309e+06
2.27774e+06   3.87106e+06   -2.7563e+06
3.03122e+06   3.34306e+06   -2.62738e+06
3.02434e+06   4.12455e+06   -2.58348e+06
2.26627e+06   4.22936e+06   -2.23173e+06
2.178e+06   3.04421e+06   -2.39753e+06
2.57744e+06   4.40808e+06   -2.59972e+06
1.46849e+06   -3.38535e+06   -3.05432e+06
259847   3.56021e+06   2.30334e+06
-1.00243e+06   3.3375e+06   2.05004e+06
-909481   3.96478e+06   2.68821e+06
-239592   3.75332e+06   1.31839e+06
622268   2.87752e+06   3.13036e+06
390509   2.19639e+06   2.69692e+06
777275   2.68791e+06   2.10261e+06
1.2479e+06   -5.34932e+06   -1.63109e+06
1.77059e+06   -5.16361e+06   -1.74214e+06
1.39322e+06   -5.15803e+06   -2.0704e+06
1.49358e+06   -4.69021e+06   -1.70879e+06
317774   4.31436e+06   1.82868e+06
517073   4.61913e+06   2.58161e+06
1.21533e+06   3.80702e+06   2.44124e+06
1.23688e+06   2.89701e+06   2.46698e+06
678212   3.64627e+06   1.55034e+06
311961   3.07076e+06   1.65018e+06
-4.11639e+06   -13315.7   3.98598e+06
-4.36891e+06   187287   3.70276e+06
-4.11584e+06   476253   3.95802e+06
-3.58288e+06   -26192.3   3.89354e+06
-3.56608e+06   -721046   4.42675e+06
-2.97317e+06   -135076   4.33229e+06
-3.18985e+06   -558851   4.7271e+06
-3.42814e+06   -939489   3.89979e+06
-3.02996e+06   848559   4.25831e+06
-3.50579e+06   -177809   4.52888e+06
-3.41357e+06   272023   4.59417e+06
-4.13241e+06   154110   3.06637e+06
-3.81925e+06   816989   4.1927e+06
1.64812e+06   -4.39698e+06   -3.28378e+06
815346   -4.04821e+06   -2.9391e+06
-2.27089e+06   1.16043e+06   3.94514e+06
-1.76998e+06   38318.2   3.01922e+06
-1.72945e+06   379739   3.61726e+06
-1.5561e+06   -631825   4.86525e+06
-1.01683e+06   -127751   4.04263e+06
-2.20011e+06   -981089   5.19902e+06
-2.30024e+06   -469147   5.22702e+06
-1.69307e+06   -23129.9   4.77367e+06
1.75683e+06   -5.39709e+06   786009
1.97287e+06   -5.37007e+06   320915
1.28122e+06   -5.1519e+06   119510
2.24258e+06   -4.59852e+06   370713
1.99539e+06   1.93251e+06   2.12928e+06
2.49297e+06   2.87299e+06   2.56089e+06
1.47554e+06   2.69281e+06   3.11837e+06
2.16335e+06   1.87053e+06   3.05295e+06
889817   1.54465e+06   3.01202e+06
1.25537e+06   2.11629e+06   2.48905e+06
1.77159e+06   2.06497e+06   3.72543e+06
1.19431e+06   2.8097e+06   4.07048e+06
826950   1.96292e+06   3.59077e+06
-4.81132e+06   -2.77827e+06   -1.4019e+06
-4.74296e+06   -2.61558e+06   -1.86975e+06
-5.00707e+06   -2.31295e+06   -1.55318e+06
-4.74897e+06   -2.04241e+06   -1.2109e+06
-2.98994e+06   1.66862e+06   -725259
-3.73485e+06   1.32014e+06   -1.70535e+06
-4.03844e+06   2.03903e+06   -969969
-3.26316e+06   2.05982e+06   -1.42834e+06
-5.08179e+06   2.47565e+06   -937769
-4.97657e+06   2.47122e+06   -1.3999e+06
-4.2463e+06   2.7718e+06   -851029
-4.68664e+06   2.00645e+06   -488483
-3.46269e+06   2.11504e+06   124817
-3.49831e+06   2.97001e+06   -849445
-4.13106e+06   2.55765e+06   -1.76472e+06
-2.91016e+06   4.36985e+06   -74863.9
3.13745e+06   1.09067e+06   4.66902e+06
3.31192e+06   1.53684e+06   4.41613e+06
3.45754e+06   953528   3.77818e+06
2.82303e+06   1.39052e+06   3.49793e+06
3.93707e+06   652479   4.11177e+06
4.207e+06   1.14816e+06   3.71696e+06
3.66872e+06   197613   3.40909e+06
3.63258e+06   239777   4.42491e+06
3.03888e+06   191277   4.31468e+06
3.53005e+06   898201   4.42322e+06
3.4491e+06   2.03177e+06   4.09982e+06
3.75592e+06   1.36331e+06   4.10698e+06
1.38138e+06   -780715   -3.11966e+06
2.15255e+06   -833585   -2.6309e+06
2.40788e+06   -1.53495e+06   -3.81101e+06
1.24499e+06   -2.03951e+06   -2.55742e+06
1.99258e+06   -1.73374e+06   -2.29647e+06
888225   -1.50778e+06   -3.03112e+06
1.69894e+06   -2.61714e+06   -4.03694e+06
984552   873869   -3.85483e+06
716878   1.23844e+06   -5.05147e+06
313559   1.5389e+06   -3.89725e+06
1.68105e+06   871392   -4.95356e+06
1.00023e+06   410340   -4.9392e+06
1.0692e+06   -4.74822e-10   -3.33269e+06
1.34708e+06   798059   -3.13025e+06
2.07158e+06   604245   -3.37305e+06
534602   925958   -3.33269e+06
936509   123937   -4.05213e+06
2.07777e+06   413630   -4.35966e+06
1.65875e+06   1.45318e+06   -4.25741e+06
-4.2536e+06   -3.43145e+06   -1.72189e+06
-4.00818e+06   -3.53934e+06   -2.05924e+06
-4.2207e+06   -3.23034e+06   -2.14091e+06
-3.60071e+06   -3.52863e+06   -1.81333e+06
-4.09698e+06   -3.06318e+06   -1.54915e+06
-4.07517e+06   -2.40864e+06   -2.4077e+06
-4.00059e+06   -2.03894e+06   -1.64526e+06
-4.45777e+06   -2.85389e+06   -2.19466e+06
-3.48152e+06   -3.20057e+06   -1.1461e+06
-4.41616e+06   -2.73063e+06   -1.01114e+06
-3.18722e+06   -2.34869e+06   -996539
-4.52525e+06   -3.2705e+06   -1.28796e+06
-4.52267e+06   -3.04213e+06   -1.76742e+06
245445   -3.57225e+06   2.88188e+06
795164   -4.01675e+06   1.72564e+06
1.24301e+06   -4.5689e+06   2.20009e+06
[...]
POINT_DATA 28959
VECTORS displacement float
0.000107076   0.000786035   -0.00140241
6.18075e-05   -0.000107151   -0.00195089
1.09371e-05   0.000871268   -0.000915095
0.000119785   8.86974e-05   -0.00106803
0.000312327   0.000532677   -0.00128002
-6.3084e-05   0.000136433   -0.00202484
0.000109605   3.29273e-05   -0.00148931
0.00028399   0.000785022   -0.000998768
0.0003407   0.00111761   -0.00109496
-9.50589e-05   -0.000377002   -0.00221423
7.53916e-05   0.000812847   -0.00200501
-0.000155262   0.000559889   -0.00241868
0.000114645   0.00325387   -0.000654057
0.000512019   0.00207233   -0.00127266
0.000388946   0.00099477   -0.00154365
0.00022938   0.0020913   -0.000975121
0.00023091   0.00135738   -0.000769898
0.000456523   0.000328433   -0.000467066
0.000510405   0.000356683   -0.00061058
0.000573783   0.000408651   -0.000697688
0.000594472   0.000446664   -0.000646993
0.000638835   0.000425741   -0.000743588
0.000483653   0.000265422   -0.000665065
0.000556615   0.000313958   -0.000701464
0.000634686   0.000447926   -0.000645669
0.000616351   0.000392625   -0.000674037
0.000552492   0.000358568   -0.000573709
-0.00024191   -0.000329184   -0.00171326
-0.000343456   -0.000344304   -0.00200552
-0.000286764   -0.000169491   -0.00165579
-0.000219753   -0.000208822   -0.00132972
-0.000169586   -0.000427584   -0.00163774
-0.0001642   -0.000414658   -0.00195076
-0.00033548   -0.000417982   -0.00193936
-0.000259171   -0.000330581   -0.00176942
-0.000156099   -0.000254585   -0.00143233
-0.000308178   0.000501495   -0.000940148
0.000293014   -0.000130124   -0.0020477
-0.000353777   0.000316102   -0.000800202
3.79314e-05   -4.28456e-05   -0.00101074
-0.000109337   -0.000344272   -0.00148707
-0.000134612   -0.000379603   -0.00155841
0.000301057   0.000237442   -0.000387036
0.000338732   0.000237857   -0.000427101
0.000320774   0.000253578   -0.000342798
0.000294882   0.000243936   -0.000313096
-0.000318571   -0.000349027   -0.00223172
0.000563707   0.000425256   -0.000607384
0.0005224   0.000332647   -0.000635321
0.000543889   0.000353779   -0.000686325
0.000651909   0.000469829   -0.00062639
0.000599091   0.000418884   -0.000609414
0.000639175   0.000475598   -0.00060578
0.000601597   0.000385939   -0.000662472
0.00055679   0.000355641   -0.000672999
0.000543287   0.000356236   -0.000645586
0.000587981   0.000408695   -0.000622097
0.000606961   0.000397525   -0.000691429
0.000570337   0.000398331   -0.000613317
0.000602117   0.000457459   -0.000568234
0.000573268   0.000425689   -0.000570361
0.000553986   0.000379121   -0.000601426
-0.000129141   -0.000176763   -0.00230493
0.000162149   0.000145038   -0.00168384
-8.81362e-05   -0.000290126   -0.00195602
-0.000334082   -0.000891529   -0.00462611
-0.000574044   -0.000568442   -0.00336184
-0.000660879   -0.000940747   -0.00457659
0.000541423   0.000281441   -0.00073897
0.000533433   0.000331578   -0.000665223
0.000520742   0.000276416   -0.000687341
0.00024558   0.000582197   -0.00215766
0.000568921   0.000234489   -0.000851384
0.00055049   0.000250966   -0.000789388
0.000570964   0.000264659   -0.000842321
0.000569648   0.000306879   -0.000803906
0.00051557   0.000156125   -0.000762416
0.000533248   0.000245435   -0.000746986
0.000531218   0.000272264   -0.000711616
0.000557415   0.000242552   -0.000825662
0.000542766   0.000181144   -0.000832345
0.000529545   0.000194431   -0.000761817
0.000623296   0.000336377   -0.000877098
0.000484052   0.000179813   -0.00083669
0.000613671   0.000359111   -0.00084141
0.000523823   0.000230059   -0.000759877
3.89975e-05   7.58101e-05   -0.000495952
2.19041e-05   2.59309e-05   -0.000962045
0.000112028   -0.000259123   -0.000483041
7.30801e-05   -0.000269562   -0.000419251
1.40016e-05   0.000204959   -0.000811422
-5.23778e-05   4.56284e-05   -0.000799717
0.000568625   0.000418233   -0.000672534
0.000573745   0.000379777   -0.000748523
0.000190441   -0.000658806   -0.000468841
0.000147689   -0.000457324   -0.00118236
-0.000144975   0.000258822   -0.00148808
-0.0001497   -6.29783e-05   -0.00187204
-3.74509e-05   -0.000129736   -0.00105212
7.15958e-05   0.00035861   -0.00166398
7.61141e-05   0.000251668   -0.000837163
0.000388427   0.000274285   -0.000430132
0.000344393   0.000203635   -0.00042492
0.000356143   0.000247902   -0.000395881
0.00036087   0.00026842   -0.000381564
0.000380388   0.000242574   -0.000463353
0.000432972   0.000288517   -0.000491012
0.000447443   0.000349807   -0.000445034
0.000394981   0.00032785   -0.000365794
0.00045376   0.000353547   -0.000448476
0.000388454   0.000315089   -0.00036959
0.000382735   0.000227676   -0.00047522
0.000386243   0.000303593   -0.000382669
0.000107796   0.00013847   -0.00024989
0.000174632   0.000124345   -0.00050652
0.000159779   0.000114515   -0.000324909
0.000208472   4.97446e-05   -0.000299127
5.30596e-05   6.24757e-05   -0.000354784
1.80453e-05   9.52672e-05   -0.000565177
4.19628e-05   9.41075e-05   -0.000501688
0   0   0
0.000200053   0.000101736   -0.000296074
0.000157321   0.000132992   -0.000309958
0.000485585   0.000154143   -0.000991138
0.000479192   8.14481e-05   -0.00108232
0.000539629   0.000186004   -0.00112446
0.000570251   0.000182666   -0.00114935
0.000495853   0.000206722   -0.000909162
0.000466686   0.000125676   -0.000984124
0.000442075   0.000107025   -0.00088077
0.000494719   0.000222104   -0.000890281
0.000544104   0.000149407   -0.00105227
0.000449139   5.29446e-05   -0.000975323
0.000436934   0.000451756   -0.000251347
0.000410805   0.000428703   -0.000230579
0.000413348   0.000410372   -0.000261549
0.00041949   0.000406588   -0.000289703
0.000394334   0.000411086   -0.000224672
0.000375317   0.000377885   -0.000229508
0.000421358   0.000379404   -0.000333426
0.000387685   0.000408385   -0.000209347
0.000559172   0.00031856   -0.000769535
0.000156926   0.000110171   -0.00026064
0.000110301   0.000117609   -0.000326256
9.41551e-05   -4.45908e-05   -0.000155654
0.000174832   0.000164006   -0.000261866
0.000159795   7.439e-05   -0.000463269
0.000213256   0.000356548   -0.000904097
0.000254381   0.000255182   -0.000561985
0.000575806   0.000150308   -0.000962851
0.000572772   0.000175116   -0.000927228
0.000588539   0.000196001   -0.000945612
0.000560657   0.000163885   -0.000898439
0.000154944   0.000112212   -0.000165948
0.000114241   -2.30395e-05   -6.17039e-05
0.000175042   0.000107989   -0.000218316
0.000255102   0.000193839   -0.000473227
0.000203471   0.000185741   -0.000271626
0.000202671   0.00019846   -0.000389422
-0.000183538   -0.000345566   -0.00133884
-0.000165942   -0.000312957   -0.00127168
-0.000169919   -0.000322869   -0.00123901
-0.000221936   -0.000314789   -0.00140606
-0.000185344   -0.000409976   -0.00146495
-0.000275854   -0.000384045   -0.00164725
-0.00022396   -0.000422284   -0.00156129
-0.000162428   -0.000370907   -0.00146561
-0.000164223   -0.000329843   -0.00129341
-0.000201733   -0.000403453   -0.0014527
-0.000181425   -0.000405692   -0.00139091
-0.000148552   -0.000238174   -0.00126885
-0.000148531   -0.000345483   -0.00118802
0.000603278   0.000334146   -0.000869035
0.00058426   0.000275626   -0.000858322
-0.000156323   -0.00023457   -0.00134284
-0.000437609   -0.000181036   -0.00211916
-0.000316743   -0.000193552   -0.00220186
-0.00041999   -0.000509007   -0.00263954
-0.000424562   -0.000356298   -0.00339052
-0.000161991   -0.000388434   -0.00192198
-0.000289153   -0.000477257   -0.0020324
-0.000531476   -0.000472641   -0.00269223
0.00045166   -2.49564e-05   -0.000888108
0.000477516   9.94049e-06   -0.000893538
0.000485237   5.639e-06   -0.000916126
0.000468784   -9.99261e-07   -0.000835871
0.000435646   0.000266571   -0.000728815
0.000312193   0.000166458   -0.000420925
0.000250787   0.00011301   -0.000525518
0.000412864   0.000152541   -0.000788646
0.000392255   0.000359756   -0.00146815
0.000366749   0.000302529   -0.000893609
0.000295266   1.22979e-05   -0.000838377
9.15813e-05   -0.000327704   -0.00038918
0.000278158   6.73521e-05   -0.00112858
0.00048779   8.705e-05   -0.00134573
0.000522311   0.000135225   -0.00131081
0.000491268   0.000111086   -0.001329
0.000455167   8.59175e-05   -0.00129095
0.000338998   0.000164962   -0.000693391
0.000451966   0.000217559   -0.000829416
0.000362178   0.000170887   -0.000794396
0.000412993   0.000208392   -0.000686358
0.000354254   0.000160945   -0.000880608
0.000406372   0.000195105   -0.000858804
0.000345021   0.000166413   -0.000733622
0.000300132   0.000129124   -0.000893334
0.000204697   0.000118365   -0.000716613
0.000348328   0.00016762   -0.000605358
0.000441318   0.000229074   -0.000736607
0.000260287   0.000114064   -0.000383127
0.000351667   -0.000149205   -0.000905777
0.000319497   -9.51341e-05   -0.000712769
0.000472759   -3.40499e-05   -0.00075842
0.000466275   4.6369e-05   -0.000835898
0.000427143   -9.48619e-05   -0.000715992
0.000432377   -3.37155e-05   -0.000607434
0.000515628   -8.69299e-05   -0.000760377
0.000404704   -0.000152232   -0.00084479
0.000468464   -0.000164514   -0.00107186
0.000385613   -0.000114052   -0.000785455
0.000301193   -4.71866e-05   -0.000570914
0.000385064   -5.74318e-05   -0.000645736
0.000527095   0.000349317   -0.000586002
0.000517571   0.00031925   -0.000592474
0.000552587   0.000403536   -0.000615207
0.000495898   0.000264801   -0.000641442
0.000514084   0.000264239   -0.000643285
0.000501705   0.000314598   -0.000591836
0.000570431   0.000416652   -0.000681346
0.000552729   0.000427989   -0.000529889
0.000608803   0.000503467   -0.000518838
0.000552919   0.000435409   -0.000518342
0.000594639   0.000502306   -0.000506804
0.000608677   0.00048494   -0.00054876
0.000541287   0.000381059   -0.000570753
0.0005209   0.000389339   -0.000530194
0.000525855   0.000404661   -0.000516589
0.000534848   0.00039742   -0.000549244
0.00056831   0.000423033   -0.000561404
0.000566899   0.000462894   -0.000520211
0.0005549   0.000471099   -0.000474073
0.000523712   0.000104868   -0.00131565
0.000546826   0.000132872   -0.00128876
0.000547544   0.000146531   -0.00128941
0.000526935   0.000108475   -0.00124753
0.000502602   9.56216e-05   -0.00127626
0.000548625   0.00019081   -0.00120604
0.000488554   0.000131036   -0.0011891
0.000547307   0.000160174   -0.00128642
0.00047416   5.33848e-05   -0.00122442
0.000453179   5.12667e-05   -0.00131005
0.000443756   6.50224e-05   -0.00113794
0.00048916   6.60151e-05   -0.0013483
0.00052106   0.000116764   -0.00131831
0.000285522   -0.000181967   -0.00084904
0.000376409   -0.000140127   -0.000852923
0.000344906   -0.000108457   -0.000791017
0.000292175   -0.000128365   -0.000840661
0.000300452   -7.91602e-05   -0.00078268
0.000324848   -9.79117e-05   -0.0008439
0.000228656   -2.81843e-05   -0.000735485
0.000278637   -7.87402e-05   -0.000798379
0.000241905   -7.79488e-05   -0.000718982
0.000305281   -0.000108213   -0.000864787
0.000360993   -0.00012783   -0.000909195
0.000499913   0.000226961   -0.000927779
0.000398706   0.000147367   -0.000979603
0.000497639   0.000226834   -0.00098432
0.000450998   0.000156212   -0.00111179
0.000447574   0.000170154   -0.000936664
0.000485158   0.000108867   -0.000697899
0.000501694   0.000200616   -0.000683942
0.000479398   9.20816e-05   -0.000705656
0.000408224   0.00017564   -0.000842177
0.000521847   0.000272149   -0.00079912
0.000499502   0.000223045   -0.000888115
0.000575074   0.000294869   -0.000950235
0.000528006   0.000211905   -0.00105717
0.000521806   0.000220268   -0.00107484
0.000525175   0.000468021   -0.000437714
0.000502463   0.000441258   -0.000422166
0.000539253   0.000460957   -0.000476915
0.000499375   0.000402269   -0.000474717
0.000510796   0.000134626   -0.000752829
0.000496325   7.83543e-05   -0.000774229
0.000541352   0.000145371   -0.000851521
0.000541127   0.000484182   -0.000445169
0.000543024   0.000495479   -0.000425832
0.000449609   5.90374e-05   -0.00136424
0.000461329   9.13969e-05   -0.00133702
0.000573337   0.000507623   -0.000475946
0.000564861   0.00047036   -0.000520665
0.000529875   0.000452466   -0.000456592
0.000558091   0.000497454   -0.000460241
0.000569278   0.000494252   -0.000498829
0.000559668   0.000507969   -0.000440691
0.00022464   0.000161012   -0.000147133
0.00026765   0.000205773   -0.000180039
0.000220468   0.00017429   -0.000126483
0.000212137   0.000146109   -0.000172061
0.000276845   0.000187154   -0.00020745
0.000324826   0.000210961   -0.000265411
0.000307038   0.000253109   -0.000192853
0.000297079   0.000201582   -0.000268322
0.000268662   0.000225599   -0.000148391
0.000297272   0.000244791   -0.000169143
0.000251383   0.000177027   -0.000166288
0.000272322   0.000210173   -0.000164762
0.000271679   0.000246728   -0.000139082
0.000242109   0.000210776   -0.000127988
0.000259073   0.000211337   -0.000193039
-0.000735105   -0.00116195   -0.00941669
0.000564273   -1.51157e-05   -0.00501854
-0.000168593   -1.08443e-05   -0.00412364
0.000214667   -0.000382403   -0.00292562
0.00128928   -0.000297678   -0.00948622
0.000721093   -0.000123472   -0.00315339
0.00053087   -0.000176649   -0.00281257
0.00104373   -0.000141847   -0.00442957
0.000116435   -0.000158644   -0.00352688
0.000314201   7.85703e-05   -0.00281507
0.000572185   -9.75557e-05   -0.00333678
0.000350935   -0.000308139   -0.00321257
0.000934283   -0.000424322   -0.00455716
0.00053283   0.000214242   -0.000758582
0.000508244   0.000199259   -0.000688867
0.000510657   9.89639e-05   -0.00078118
0.000540273   0.000144555   -0.000864504
0.000299277   -0.000135096   -0.00134096
0.000312671   -9.71707e-05   -0.00138099
0.000399781   -7.71091e-06   -0.00129547
0.000378151   -6.28858e-05   -0.00136184
0.000263852   -0.000176575   -0.00143845
0.00019144   -0.0001943   -0.00138328
0.000268215   -0.00021288   -0.00140055
0.000234841   -0.000215417   -0.00142838
0.000211488   -0.000218735   -0.00131882
0.0003009   0.000232674   -0.000263576
0.000251452   0.000227568   -0.000195064
0.000223623   0.000183349   -0.00023944
0.000245965   -9.99858e-05   -0.00131392
0.000319884   -8.02353e-05   -0.00123896
0.000565177   3.46465e-05   -0.00213664
0.000276446   0.000289065   -0.000133921
0.000290902   0.000299326   -0.000138989
0.000303993   0.000320902   -0.000148008
0.000289706   0.000270841   -0.000197678
0.000666581   -0.000235002   -0.00263075
0.000745683   0.000122223   -0.00195895
0.000467391   0.000289664   -0.00262101
0.000538187   6.43193e-05   -0.000985653
0.000558915   0.000105212   -0.00097699
0.000556489   8.08328e-05   -0.00101285
0.000538243   7.03561e-05   -0.000963262
0.000536338   0.000316163   -0.000613243
0.000586487   0.000322393   -0.000743519
0.000593245   0.000385445   -0.000622863
0.000671338   0.000411128   -0.000793724
0.000596259   0.000353825   -0.000766729
0.000672185   0.000448597   -0.000734405
0.000672635   0.000452121   -0.000695046
0.00062637   0.000467722   -0.000605014
0.000594993   0.000259495   -0.00119143
0.000605308   0.000262766   -0.00119392
0.000621416   0.000293827   -0.00115265
0.00057784   0.000258415   -0.00111665
0.000638221   0.000294503   -0.00114534
0.000649089   0.000316899   -0.00112621
0.000591074   0.00025752   -0.00112936
0.000582829   0.000273991   -0.00103007
0.000580899   0.000234181   -0.00122319
0.000364837   0.000325569   -0.00029319
0.000394093   0.000360515   -0.000309434
0.000349453   0.000311535   -0.000288497
0.000533717   0.000188211   -0.00120764
0.0005948   0.00023397   -0.00122239
0.000379007   -4.89541e-05   -0.00141395
0.000371858   -3.5685e-05   -0.00141267
0.000317841   -0.000135453   -0.00142609
0.000238568   -0.000166635   -0.00144788
0.000420498   -3.43111e-05   -0.00124388
0.000348275   -9.22718e-05   -0.00142353
0.000344952   -0.000229481   -0.000815713
0.000297467   -0.000135402   -0.000714644
0.000339458   -0.000154405   -0.000691068
0.000234005   -0.000135693   -0.000694699
0.000264312   0.000248704   -0.000152926
0.000427927   -0.000222974   -0.000775671
0.000488297   -0.000279778   -0.000972249
0.00020869   -0.000132736   -0.000727861
0.000383219   -0.000181516   -0.000802424
0.000146486   6.44666e-06   -0.000658195
0.000177559   -0.000107518   -0.000845146
0.000291497   -0.000234878   -0.00086798
0.000300275   0.000281532   -0.000151538
0.00033021   0.000315962   -0.000166282
0.000309107   0.000307728   -0.000149837
0.000327922   0.000282929   -0.000224152
0.00031955   0.000332018   -0.000153869
0.000342957   0.000334539   -0.000195294
0.000510317   3.04027e-05   -0.00128685
0.000536999   6.94526e-05   -0.00125878
0.000525561   9.1832e-05   -0.00120233
0.000480775   2.38031e-05   -0.00117707
0.000524791   6.48384e-05   -0.00128795
0.000540122   0.000100762   -0.00128313
0.000563582   0.000135669   -0.00125283
0.000550565   0.00010315   -0.00125811
0.000539799   8.42915e-05   -0.00117435
0.0005611   0.000107223   -0.0012292
0.000582509   0.000143841   -0.00119976
0.000572279   0.000139209   -0.00122904
0.000416388   0.000334505   -0.000391182
0.000384667   0.000330774   -0.000323141
0.000443815   0.000376159   -0.000380408
0.000388093   0.000328279   -0.000306126
0.000338498   0.000285575   -0.00028206
0.000350395   0.000330502   -0.00024441
0.000401339   0.000320449   -0.000393949
0.000377829   0.000329923   -0.000322378
0.000387553   0.000301911   -0.000355666
0.000362404   0.000292083   -0.00034656
0.000569433   0.000491182   -0.000462014
0.000515607   0.000419625   -0.000463051
0.000523639   0.000477644   -0.00037852
0.000576503   0.000494604   -0.000462882
0.000535859   0.000491041   -0.000395455
0.000530586   0.000430276   -0.000485095
0.000608479   0.000489062   -0.000534707
0.000578684   0.000524276   -0.000424714
0.000602054   0.000531506   -0.000461963
0.000333234   0.000226345   -0.000351314
0.000336806   0.000233077   -0.000361547
0.000330632   0.000246327   -0.000314891
0.000345964   0.000269742   -0.000330281
0.000406895   0.00028805   -0.000455452
0.000420238   0.000321094   -0.000436929
0.000428731   0.000307486   -0.000476638
0.000418505   0.000296237   -0.000467628
0.000329965   0.000171499   -0.000418382
0.000368782   0.000284788   -0.000389884
0.000356971   0.000277443   -0.000343864
0.000370575   0.000311248   -0.000325549
0.00029974   0.000315862   -0.000164956
0.000288806   0.00030573   -0.000146971
0.000315223   0.000336269   -0.000162924
0.000317917   0.00031903   -0.000198999
0.000346693   0.000307749   -0.000275827
0.000346755   0.000243225   -0.000366665
0.000343336   0.000260405   -0.000328545
0.000227086   0.000107756   -0.000336647
0.000267592   0.000123186   -0.000347447
0.000205143   0.000108659   -0.000302094
0.000200964   9.71329e-05   -0.000379032
0.000217048   0.000110074   -0.000451522
0.000165081   9.53306e-05   -0.000399109
0.00026765   0.000129643   -0.000466849
0.000303478   0.000146055   -0.00048901
0.000291364   0.000136486   -0.000406509
0.000112842   -0.000118175   -0.000965222
0.000381331   -0.000178135   -0.00139057
0.000261027   -0.000175039   -0.000919887
0.000481802   -0.000218398   -0.00110687
0.000553459   -0.000154831   -0.00245408
0.000533923   -0.000200957   -0.00214293
0.000638025   -0.000128011   -0.00220351
0.000560269   -9.17346e-05   -0.0014502
0.000499051   -0.000300472   -0.00179099
0.0004226   -0.000175489   -0.00179211
0.000249896   -0.0001555   -0.00145546
3.07184e-05   -5.56861e-05   -0.00150173
8.17709e-05   -9.13014e-05   -0.00119046
4.84428e-05   -3.75371e-05   -0.00157284
0.00038016   -0.000327895   -0.0012131
3.26342e-05   3.50598e-05   -0.00140192
0.000487547   -0.000339693   -0.00112459
0.000403335   -0.000313963   -0.00103913
0.000442759   -0.000527524   -0.00238427
0.000624303   -0.000438586   -0.00183447
0.000309658   -0.000194587   -0.000934763
-0.000746854   -0.000966032   -0.00346196
-0.000233714   -0.000569654   -0.00223442
-3.8887e-05   -0.000853254   -0.0022835
-0.000806351   -0.00053962   -0.00470138
0.00055063   -0.00130778   -0.00129734
0.000367144   -0.00116619   -0.000801408
0.000143052   -0.000618929   -0.00102819
0.000887866   -0.00227369   -0.000443087
0.000210003   -0.00107383   -0.00161452