# vtk DataFile Version 2.3
FEM Grid Data
ASCII
DATASET UNSTRUCTURED_GRID
POINTS 28959 float
-526185   -1.53048e+06   5.01694e+06
-50778.8   -1.37681e+06   4.41256e+06
-74015.3   -1.8988e+06   4.92592e+06
-149872   -2.16568e+06   4.23679e+06
-1.19938e+06   -1.78044e+06   5.31267e+06
-952779   -1.113e+06   5.08147e+06
-1.21683e+06   -1.80527e+06   4.82005e+06
-909908   -2.17288e+06   5.22337e+06
-794076   -1.80894e+06   5.37867e+06
-922229   -1.22497e+06   4.40823e+06
-478003   -1.0431e+06   5.16958e+06
-70857   -957782   4.97573e+06
-118895   -1.28308e+06   5.58323e+06
-574369   -1.15349e+06   5.58323e+06
-967492   -1.36162e+06   5.48114e+06
-400017   -1.6225e+06   5.48091e+06
-464739   -2.09257e+06   5.31395e+06
-53045.6   -2.17372e+06   -3.48351e+06
1.04495e+06   -1.99518e+06   -3.48061e+06
751766   -2.95117e+06   -3.97285e+06
832951   -2.30568e+06   -4.59536e+06
-201619   -2.95065e+06   -4.37616e+06
-223581   -2.81973e+06   -3.03469e+06
-846909   -2.43455e+06   -3.47e+06
80926   -2.23187e+06   -4.75467e+06
-626300   -2.01932e+06   -4.22319e+06
123098   -1.50647e+06   -3.94708e+06
-2.55128e+06   -474511   3.39756e+06
-2.19669e+06   -22015.4   4.08418e+06
-2.40174e+06   233207   3.19193e+06
-3.19623e+06   533982   3.44142e+06
-2.53701e+06   -1.26623e+06   4.46635e+06
-1.68532e+06   -1.12813e+06   3.74436e+06
-2.42625e+06   -496390   4.70757e+06
-2.1086e+06   -671392   2.71165e+06
-3.17683e+06   -597890   2.71408e+06
1.23189e+06   -1.7144e+06   4.90315e+06
1.28408e+06   -771360   4.49506e+06
2.03331e+06   -1.59108e+06   5.11537e+06
2.04555e+06   -1.51489e+06   4.53583e+06
-2.61201e+06   -1.29148e+06   2.77345e+06
-2.72404e+06   -1.29973e+06   3.6482e+06
1.78798e+06   2.85567e+06   947780
2.47323e+06   2.40025e+06   609872
1.93239e+06   2.917e+06   -83627
2.11813e+06   3.36987e+06   511166
-1.76858e+06   -418446   3.57109e+06
1.3732e+06   -1.63655e+06   -4.27257e+06
1.79692e+06   -1.79263e+06   -3.06863e+06
1.96893e+06   -2.54572e+06   -3.2912e+06
-221665   -304169   -5.10324e+06
-140904   -132090   -4.2766e+06
-586190   730934   -4.97612e+06
-933359   -322267   -3.98591e+06
-1.0692e+06   -1.3094e-10   -3.33269e+06
-1.22839e+06   776688   -3.18399e+06
-608949   386864   -3.99143e+06
-1.50448e+06   302157   -4.01461e+06
-1.27262e+06   1.27819e+06   -3.74991e+06
200837   655954   -4.57811e+06
-287216   1.09015e+06   -3.99691e+06
-2.14313e-10   -2.62458e-26   -3.5e+06
-1.4077e+06   -897017   5.48148e+06
-1.41089e+06   -1.38938e+06   5.37698e+06
-1.48434e+06   -1.23024e+06   4.93197e+06
-299905   -519957   4.60042e+06
-1.07676e+06   -561965   5.11693e+06
-654734   -422935   5.16787e+06
2.25682e+06   -3.06652e+06   -2.56776e+06
2.70411e+06   -2.18929e+06   -2.92881e+06
1.72247e+06   -2.45732e+06   -2.56198e+06
-952271   -868110   5.58323e+06
1.82344e+06   -4.23606e+06   -2.31095e+06
2.75324e+06   -3.7488e+06   -2.21891e+06
2.795e+06   -4.39498e+06   -2.38851e+06
2.31806e+06   -3.83873e+06   -2.86069e+06
2.8903e+06   -3.41878e+06   -1.19466e+06
3.52523e+06   -3.33825e+06   -1.95766e+06
3.15627e+06   -2.79679e+06   -2.27449e+06
3.16237e+06   -4.30649e+06   -2.07038e+06
2.57488e+06   -4.26272e+06   -1.57522e+06
2.05547e+06   -3.26627e+06   -1.78518e+06
-814525   -3.39665e+06   -3.80721e+06
-1.05971e+06   -2.78952e+06   -2.83681e+06
48671.5   -3.73937e+06   -3.76955e+06
391112   -3.19957e+06   -2.60542e+06
-1.38488e+06   2.79074e+06   2.64166e+06
-783563   2.02012e+06   3.33975e+06
-477065   2.65256e+06   3.73814e+06
-1.51043e+06   2.78638e+06   3.60959e+06
-1.37815e+06   2.13344e+06   2.40813e+06
-1.83762e+06   2.11771e+06   2.87022e+06
2.63198e+06   -2.3858e+06   -4.01003e+06
2.1722e+06   -3.28571e+06   -3.61733e+06
-1.37279e+06   2.4557e+06   4.38062e+06
-630265   1.77553e+06   4.35584e+06
-1.11156e+06   1.48321e+06   2.96893e+06
-1.42804e+06   1.13259e+06   3.7054e+06
-1.55992e+06   1.84661e+06   3.62682e+06
-70493.5   1.59129e+06   3.11654e+06
-533887   2.18592e+06   2.6808e+06
3.64041e+06   1.45774e+06   -1.10235e+06
3.59466e+06   1.74776e+06   13251
4.45119e+06   1.86704e+06   -498221
3.29533e+06   2.30193e+06   -685289
4.5782e+06   806132   -740449
3.67254e+06   510254   -1.60253e+06
4.15725e+06   954789   -2.22628e+06
4.13269e+06   2.13696e+06   -1.6139e+06
3.20077e+06   1.25176e+06   -2.30352e+06
3.07922e+06   2.39834e+06   -1.42858e+06
3.29434e+06   961057   -688266
4.81786e+06   1.77581e+06   -1.28705e+06
-2.02354e+06   3.26065e+06   875393
-3.23633e+06   3.56999e+06   436939
-2.38483e+06   3.93387e+06   743046
-2.34324e+06   3.41376e+06   40513.9
-2.52804e+06   3.62084e+06   1.91478e+06
-3.0923e+06   2.63763e+06   1.17313e+06
-2.3973e+06   2.27652e+06   1.14908e+06
-2.13638e+06   2.74234e+06   406754
-1.60215e+06   3.68284e+06   303810
-1.37195e+06   3.15667e+06   634958
-2.28667e+06   -2.49108e+06   -2.19331e+06
-2.46926e+06   -3.06405e+06   -1.50672e+06
-3.27023e+06   -2.62091e+06   -2.4517e+06
-2.88496e+06   -3.48625e+06   -2.66645e+06
-2.36901e+06   -1.30462e+06   -2.22166e+06
-2.36908e+06   -2.03293e+06   -1.58261e+06
-1.52726e+06   -2.49379e+06   -1.92315e+06
-1.80884e+06   -2.20403e+06   -2.83035e+06
-1.93798e+06   -3.64809e+06   -2.4648e+06
-1.79924e+06   -2.75831e+06   -1.18511e+06
2.59261e+06   3.92241e+06   -3.27505e+06
2.72372e+06   4.12847e+06   -2.89309e+06
2.27774e+06   3.87106e+06   -2.7563e+06
3.03122e+06   3.34306e+06   -2.62738e+06
3.02434e+06   4.12455e+06   -2.58348e+06
2.26627e+06   4.22936e+06   -2.23173e+06
2.178e+06   3.04421e+06   -2.39753e+06
2.57744e+06   4.40808e+06   -2.59972e+06
1.46849e+06   -3.38535e+06   -3.05432e+06
259847   3.56021e+06   2.30334e+06
-1.00243e+06   3.3375e+06   2.05004e+06
-909481   3.96478e+06   2.68821e+06
-239592   3.75332e+06   1.31839e+06
622268   2.87752e+06   3.13036e+06
390509   2.19639e+06   2.69692e+06
777275   2.68791e+06   2.10261e+06
1.2479e+06   -5.34932e+06   -1.63109e+06
1.77059e+06   -5.16361e+06   -1.74214e+06
1.39322e+06   -5.15803e+06   -2.0704e+06
1.49358e+06   -4.69021e+06   -1.70879e+06
317774   4.31436e+06   1.82868e+06
517073   4.61913e+06   2.58161e+06
1.21533e+06   3.80702e+06   2.44124e+06
1.23688e+06   2.89701e+06   2.46698e+06
678212   3.64627e+06   1.55034e+06
311961   3.07076e+06   1.65018e+06
-4.11639e+06   -13315.7   3.98598e+06
-4.36891e+06   187287   3.70276e+06
-4.11584e+06   476253   3.95802e+06
-3.58288e+06   -26192.3   3.89354e+06
-3.56608e+06   -721046   4.42675e+06
-2.97317e+06   -135076   4.33229e+06
-3.18985e+06   -558851   4.7271e+06
-3.42814e+06   -939489   3.89979e+06
-3.02996e+06   848559   4.25831e+06
-3.50579e+06   -177809   4.52888e+06
-3.41357e+06   272023   4.59417e+06
-4.13241e+06   154110   3.06637e+06
-3.81925e+06   816989   4.1927e+06
1.64812e+06   -4.39698e+06   -3.28378e+06
815346   -4.04821e+06   -2.9391e+06
-2.27089e+06   1.16043e+06   3.94514e+06
-1.76998e+06   38318.2   3.01922e+06
-1.72945e+06   379739   3.61726e+06
-1.5561e+06   -631825   4.86525e+06
-1.01683e+06   -127751   4.04263e+06
-2.20011e+06   -981089   5.19902e+06
-2.30024e+06   -469147   5.22702e+06
-1.69307e+06   -23129.9   4.77367e+06
1.75683e+06   -5.39709e+06   786009
1.97287e+06   -5.37007e+06   320915
1.28122e+06   -5.1519e+06   119510
2.24258e+06   -4.59852e+06   370713
1.99539e+06   1.93251e+06   2.12928e+06
2.49297e+06   2.87299e+06   2.56089e+06
1.47554e+06   2.69281e+06   3.11837e+06
2.16335e+06   1.87053e+06   3.05295e+06
889817   1.54465e+06   3.01202e+06
1.25537e+06   2.11629e+06   2.48905e+06
1.77159e+06   2.06497e+06   3.72543e+06
1.19431e+06   2.8097e+06   4.07048e+06
826950   1.96292e+06   3.59077e+06
-4.81132e+06   -2.77827e+06   -1.4019e+06
-4.74296e+06   -2.61558e+06   -1.86975e+06
-5.00707e+06   -2.31295e+06   -1.55318e+06
-4.74897e+06   -2.04241e+06   -1.2109e+06
-2.98994e+06   1.66862e+06   -725259
-3.73485e+06   1.32014e+06   -1.70535e+06
-4.03844e+06   2.03903e+06   -969969
-3.26316e+06   2.05982e+06   -1.42834e+06
-5.08179e+06   2.47565e+06   -937769
-4.97657e+06   2.47122e+06   -1.3999e+06
-4.2463e+06   2.7718e+06   -851029
-4.68664e+06   2.00645e+06   -488483
-3.46269e+06   2.11504e+06   124817
-3.49831e+06   2.97001e+06   -849445
-4.13106e+06   2.55765e+06   -1.76472e+06
-2.91016e+06   4.36985e+06   -74863.9
3.13745e+06   1.09067e+06   4.66902e+06
3.31192e+06   1.53684e+06   4.41613e+06
3.45754e+06   953528   3.77818e+06
2.82303e+06   1.39052e+06   3.49793e+06
3.93707e+06   652479   4.11177e+06
4.207e+06   1.14816e+06   3.71696e+06
3.66872e+06   197613   3.40909e+06
3.63258e+06   239777   4.42491e+06
3.03888e+06   191277   4.31468e+06
3.53005e+06   898201   4.42322e+06
3.4491e+06   2.03177e+06   4.09982e+06
3.75592e+06   1.36331e+06   4.10698e+06
1.38138e+06   -780715   -3.11966e+06
2.15255e+06   -833585   -2.6309e+06
2.40788e+06   -1.53495e+06   -3.81101e+06
1.24499e+06   -2.03951e+06   -2.55742e+06
1.99258e+06   -1.73374e+06   -2.29647e+06
888225   -1.50778e+06   -3.03112e+06
1.69894e+06   -2.61714e+06   -4.03694e+06
984552   873869   -3.85483e+06
716878   1.23844e+06   -5.05147e+06
313559   1.5389e+06   -3.89725e+06
1.68105e+06   871392   -4.95356e+06
1.00023e+06   410340   -4.9392e+06
1.0692e+06   -4.74822e-10   -3.33269e+06
1.34708e+06   798059   -3.13025e+06
2.07158e+06   604245   -3.37305e+06
534602   925958   -3.33269e+06
936509   123937   -4.05213e+06
2.07777e+06   413630   -4.35966e+06
1.65875e+06   1.45318e+06   -4.25741e+06
-4.2536e+06   -3.43145e+06   -1.72189e+06
-4.00818e+06   -3.53934e+06   -2.05924e+06
-4.2207e+06   -3.23034e+06   -2.14091e+06
-3.60071e+06   -3.52863e+06   -1.81333e+06
-4.09698e+06   -3.06318e+06   -1.54915e+06
-4.07517e+06   -2.40864e+06   -2.4077e+06
-4.00059e+06   -2.03894e+06   -1.64526e+06
-4.45777e+06   -2.85389e+06   -2.19466e+06
-3.48152e+06   -3.20057e+06   -1.1461e+06
-4.41616e+06   -2.73063e+06   -1.01114e+06
-3.18722e+06   -2.34869e+06   -996539
-4.52525e+06   -3.2705e+06   -1.28796e+06
-4.52267e+06   -3.04213e+06   -1.76742e+06
245445   -3.57225e+06   2.88188e+06
795164   -4.01675e+06   1.72564e+06
1.24301e+06   -4.5689e+06   2.20009e+06
[...]
POINT_DATA 28959
VECTORS displacement float
-0.00027822   0.00071795   -0.000108892
-0.000332474   0.000125744   -0.000433607
-0.000366702   0.000735688   0.000164959
-0.000311994   0.000214114   4.50568e-05
-0.000150515   0.00051617   -8.38189e-05
-0.000378961   0.000281848   -0.000494827
-0.000276047   0.000204763   -0.000219054
-0.000166212   0.000699054   9.76333e-05
-0.000132131   0.000926658   8.45221e-05
-0.000376668   -3.55074e-05   -0.000599322
-0.000288979   0.000763412   -0.000403473
-0.000457477   0.000585114   -0.000643245
-0.000190901   0.00241854   0.00033669
0.000108891   0.00157947   2.09657e-05
-7.34425e-05   0.00085562   -0.000241736
-0.000156481   0.00162194   0.000101299
-0.000196266   0.00110309   0.000263122
6.09081e-05   8.00156e-06   3.14182e-05
6.01114e-05   -6.89431e-06   8.7767e-05
7.15926e-05   1.56246e-08   6.81067e-05
0.000109696   7.11183e-06   7.32139e-05
9.89431e-05   1.73678e-05   1.71609e-05
3.01392e-05   2.97674e-06   2.12442e-05
5.82938e-05   1.49214e-05   -1.70942e-05
0.000123846   2.03758e-05   3.54298e-05
0.000104482   2.52915e-05   3.79509e-07
9.40605e-05   1.36864e-05   4.59319e-05
-0.000436423   -9.88514e-05   -0.000515839
-0.000484788   -9.87907e-05   -0.000675965
-0.000420703   -3.75615e-05   -0.000512033
-0.000389968   -1.93152e-05   -0.000378267
-0.00045028   -0.000104652   -0.000441038
-0.00040879   -0.000126665   -0.000553897
-0.00053052   -0.000100051   -0.000642399
-0.000438251   -0.000137816   -0.000518435
-0.000403844   -6.97112e-05   -0.000375919
-0.000578866   0.000436963   5.76841e-05
-0.000200566   3.63504e-05   -0.000595459
-0.000597622   0.000271575   8.35167e-05
-0.00036747   4.85125e-05   -4.56086e-05
-0.000396193   -0.000124909   -0.000354012
-0.000417168   -0.000105941   -0.00039837
6.26349e-06   3.85275e-05   0.000138442
3.37582e-05   2.60936e-05   0.000127538
3.55219e-05   1.8806e-05   0.000164339
1.79008e-05   2.59781e-05   0.000171064
-0.000454858   -0.000115741   -0.000736747
0.000100367   -2.62168e-06   0.00010176
4.50615e-05   -2.25446e-05   0.000118988
4.05194e-05   -2.58736e-05   0.000121809
0.000170696   3.86067e-05   3.97547e-05
0.000133125   2.78602e-05   4.67013e-05
0.000182822   4.82244e-05   3.66802e-05
0.000119403   3.52735e-05   3.99172e-06
9.04227e-05   2.8985e-05   5.15017e-07
9.78676e-05   3.36985e-05   4.97137e-06
0.000130125   3.39962e-05   3.10896e-05
0.000134217   4.80273e-05   -1.81831e-05
0.0001366   4.52314e-05   1.21079e-05
0.000157498   2.99622e-05   7.28184e-05
0.000140809   3.24579e-05   5.80017e-05
9.87816e-05   1.70302e-05   5.5124e-05
-0.00048356   2.29327e-05   -0.000713559
-0.000262216   0.000254882   -0.000356412
-0.000398957   -6.39445e-06   -0.000527625
-0.000509422   -0.000230033   -0.00167456
-0.00068723   -0.000156191   -0.00116958
-0.000751297   -0.000279407   -0.00162644
-4.50406e-07   -4.13327e-05   0.000131906
3.00918e-05   -4.2692e-05   0.000145221
1.18841e-05   -2.94823e-05   0.000115439
-0.000182696   0.000503743   -0.000561587
-2.968e-05   -3.81406e-05   0.000116251
-2.93197e-05   -5.81156e-05   0.00014693
-3.5329e-05   -5.85507e-05   0.000146782
-2.57628e-06   -4.09542e-05   0.000131543
-5.98813e-05   -7.58103e-05   0.000152624
-3.22584e-05   -7.92321e-05   0.000165131
-7.15422e-06   -6.38303e-05   0.00015604
-4.87439e-05   -7.14447e-05   0.00015761
-6.4937e-05   -6.35956e-05   0.000144154
-3.4649e-05   -4.8211e-05   0.000128265
6.97535e-05   1.6473e-05   -1.81974e-05
2.33947e-05   6.66318e-06   -2.58059e-05
5.82306e-05   5.35966e-06   2.96375e-05
3.66871e-06   -9.40857e-06   5.58536e-05
-0.000153711   1.09025e-05   4.20224e-05
-0.000196349   -4.07857e-05   -0.000132046
-0.00014628   -0.000197971   0.000112716
-0.000145986   -0.000156576   9.97589e-05
-0.00018004   7.49251e-05   -0.000101216
-0.000217978   1.57811e-05   -0.000110296
6.88386e-05   -3.17036e-05   0.000142356
3.93583e-05   -2.92075e-05   0.000126274
-9.39939e-05   -0.00036379   0.000109628
-0.00014872   -0.000312996   -0.000193753
-0.000283232   8.67467e-05   -0.000402409
-0.000309089   -3.84801e-05   -0.000579194
-0.000225794   -7.37978e-05   -0.000201846
-0.000195741   0.000105062   -0.000461361
-0.00015975   7.15851e-05   -7.94669e-05
6.11195e-05   -3.11247e-05   0.000160373
5.23952e-05   -1.8611e-05   0.000139976
5.87652e-05   -3.7531e-05   0.000164769
5.95085e-05   -9.32312e-06   0.000162138
4.86636e-05   -6.3084e-05   0.000160934
5.45174e-05   -4.60669e-05   0.000160546
7.27917e-05   -4.68434e-05   0.000177432
7.45398e-05   -3.09103e-05   0.000180236
7.89173e-05   -2.62856e-05   0.000166914
7.13715e-05   -1.1404e-05   0.00017105
4.97698e-05   -3.15941e-05   0.000143526
6.67117e-05   -4.91525e-05   0.000179984
-4.58171e-05   2.13203e-05   2.6673e-05
-2.31656e-05   4.6149e-05   -5.01094e-05
-2.66823e-05   2.48204e-05   3.12608e-05
3.96045e-06   2.42723e-05   1.15119e-05
-9.85048e-05   1.96558e-05   2.86799e-05
-0.000113433   5.11595e-05   -9.00238e-05
-0.00012294   4.17707e-05   -6.13887e-05
0   0   0
-7.97208e-06   2.43095e-05   7.13769e-05
-2.78481e-05   2.69046e-05   7.30386e-05
-8.00718e-06   9.81539e-06   -0.000104516
-5.18632e-05   -7.2768e-06   -0.000122517
9.47621e-06   2.57653e-05   -0.000178119
1.78694e-05   1.98232e-05   -0.000155014
2.34662e-06   1.97283e-05   -9.79937e-05
-4.63466e-05   -6.1507e-07   -0.000107501
-2.52648e-05   -3.45305e-06   -4.9939e-05
2.95087e-05   1.78603e-05   -6.96761e-05
3.1899e-06   7.56882e-06   -8.70021e-05
-7.04099e-05   -1.82766e-05   -6.91206e-05
0.000129632   3.56532e-06   0.000192529
0.000116988   1.59521e-06   0.000196934
0.000113176   3.71747e-06   0.000186251
0.000104179   -6.66546e-06   0.000190805
0.000105535   -2.35786e-06   0.000200929
9.70612e-05   4.52415e-06   0.000191261
9.73255e-05   1.59031e-07   0.000172624
0.000108976   3.07707e-06   0.000198281
1.80602e-05   -2.13709e-05   0.00010203
-8.89325e-05   -4.24958e-06   0.000189326
-0.000100973   1.82437e-05   0.000117192
-0.000109742   -6.29863e-05   0.0002078
-5.03526e-05   2.75063e-05   0.000157474
-0.000128952   -3.25344e-05   0.000117462
-0.00010834   0.000113684   -0.00010098
-6.01616e-05   6.54874e-05   5.55756e-05
-7.02762e-05   -3.74543e-05   9.39505e-05
-6.80557e-05   -4.54733e-05   0.000114989
-4.94905e-05   -3.48065e-05   9.74791e-05
-6.04288e-05   -4.00771e-05   0.000106552
-6.56846e-05   -3.67265e-06   0.000214069
-9.92218e-05   -7.15009e-05   0.00027262
-8.50927e-05   -1.34946e-05   0.000217352
-6.6041e-05   2.97257e-05   0.000101544
-4.76403e-05   2.82952e-05   0.000177409
-6.05505e-05   4.16861e-05   0.000124589
-0.000416542   -3.18951e-05   -0.000379136
-0.000396375   -1.65181e-05   -0.000352685
-0.000385755   -2.05745e-05   -0.000346533
-0.000432637   -4.03092e-05   -0.000407131
-0.000452288   -6.73103e-05   -0.000406624
-0.000474258   -8.02179e-05   -0.000519356
-0.000476943   -7.48623e-05   -0.000462136
-0.000432643   -7.38504e-05   -0.000389991
-0.000363581   -5.88344e-05   -0.0003689
-0.000443596   -6.1443e-05   -0.000428361
-0.000414682   -6.31725e-05   -0.000411452
-0.000380629   -1.30772e-05   -0.0003445
-0.00036066   -3.62146e-05   -0.000329247
1.28981e-05   -2.52888e-05   0.000103825
8.3465e-06   -1.33902e-05   7.14836e-05
-0.000320639   -6.55801e-05   -0.000372581
-0.000488384   -6.79672e-05   -0.000714467
-0.000420713   -6.29842e-05   -0.00074707
-0.000578166   -0.000146021   -0.000913333
-0.000505153   -0.000122576   -0.00123142
-0.000484944   -7.56379e-05   -0.000600946
-0.000563202   -0.000125903   -0.000710612
-0.000606964   -0.000146712   -0.000977567
-0.00018221   -6.97957e-05   0.000152972
-0.000162662   -7.21235e-05   0.000149087
-0.000146701   -5.9851e-05   0.000120668
-0.000149514   -8.42814e-05   0.000157514
1.72041e-05   6.68079e-05   -3.60991e-05
-3.63627e-05   1.01844e-05   0.000125498
-9.43218e-05   -1.24982e-05   8.15432e-05
-2.74689e-05   1.07298e-05   -6.44431e-05
-5.74752e-05   0.000109275   -0.000379238
-3.35207e-05   8.58277e-05   -0.000106277
-0.000105999   -5.57615e-05   -7.42e-05
-0.000201476   -0.000247544   0.000169604
-0.000112429   -4.51604e-05   -0.000194918
-6.32616e-05   1.90865e-05   -0.00031241
-2.89163e-05   3.08412e-05   -0.00030088
-5.18782e-05   3.18236e-05   -0.000323666
-7.68652e-05   2.38184e-05   -0.000303533
-3.13119e-05   4.0713e-05   -9.62451e-05
2.33181e-05   6.5117e-05   -0.000154227
-3.84767e-06   7.23832e-05   -0.000162946
2.93008e-05   5.81416e-05   -9.97686e-05
9.58651e-06   0.000105646   -0.00022966
3.98491e-05   0.000106531   -0.000217684
1.73092e-05   8.28057e-05   -0.000153721
-4.0399e-05   8.6336e-05   -0.000219002
-7.25024e-05   5.45681e-05   -0.000129156
2.83222e-05   6.2688e-05   -8.92743e-05
6.5588e-05   8.72396e-05   -0.000146956
2.77092e-05   3.94506e-05   5.79665e-07
-9.97479e-05   -0.00010181   -0.000129632
-0.000105527   -9.1264e-05   -2.79187e-05
-2.91152e-05   -6.91864e-05   -5.2774e-05
-2.05617e-05   -3.30208e-05   -9.76174e-05
-6.47501e-05   -9.84143e-05   -1.45609e-05
-3.66235e-05   -8.65949e-05   4.60249e-05
-2.06283e-05   -9.77007e-05   -4.01802e-05
-9.35733e-05   -0.000106789   -7.97275e-05
-6.31904e-05   -0.000100225   -0.000202076
-8.42805e-05   -9.5276e-05   -6.24603e-05
-9.96572e-05   -8.406e-05   4.86334e-05
-6.92729e-05   -8.54363e-05   1.21035e-05
6.83392e-05   -9.85846e-06   0.000107639
5.09675e-05   -2.71048e-05   0.000131271
7.72529e-05   -2.53133e-05   0.000138856
1.88308e-05   -2.08568e-05   9.71743e-05
2.03522e-05   -3.43447e-05   0.000125446
4.97213e-05   -7.61998e-06   8.26964e-05
7.24392e-05   -1.40075e-05   0.000110237
0.000125978   1.13962e-05   0.000108967
0.000182465   2.99011e-05   0.000101552
0.000140973   2.48365e-05   9.13417e-05
0.000165939   1.17939e-05   0.000132041
0.000164064   2.01758e-05   0.000102924
9.20912e-05   8.80108e-07   0.000101511
9.78732e-05   5.15658e-07   0.000120216
0.000100666   -9.46333e-06   0.000142065
0.000107436   1.29162e-05   9.14083e-05
0.000122147   1.03087e-05   9.78805e-05
0.000133131   -2.88356e-06   0.000141104
0.000145894   8.07345e-06   0.000138697
-3.90218e-05   1.26348e-05   -0.000267329
-1.7179e-05   1.70838e-05   -0.000245861
-1.14755e-05   2.40043e-05   -0.000260286
-3.32549e-05   7.34297e-06   -0.000214097
-5.09037e-05   1.04128e-05   -0.000252915
7.85672e-06   3.67126e-05   -0.000240546
-4.38424e-05   2.19648e-05   -0.000237682
-6.76609e-06   3.19484e-05   -0.00027632
-7.73078e-05   -8.45245e-06   -0.000206044
-9.18703e-05   3.72535e-06   -0.000282829
-8.91303e-05   -8.05444e-06   -0.00018021
-6.92485e-05   6.28031e-06   -0.000292814
-3.59447e-05   2.09858e-05   -0.000286543
-0.000251356   -4.61738e-05   0.000147673
-0.000202494   -8.11451e-05   0.000136847
-0.000238135   -5.38204e-05   0.000192515
-0.000262996   -2.12054e-05   0.000167938
-0.000271847   -1.3279e-05   0.000211125
-0.000257442   -2.50447e-05   0.000176855
-0.000306497   5.53265e-05   0.000238682
-0.000281212   5.51077e-06   0.000202972
-0.00029131   1.34683e-05   0.000234639
-0.000265206   -1.33839e-05   0.00016319
-0.000224386   -5.0892e-05   0.000123617
1.49458e-05   4.8976e-05   -0.000160449
-5.55426e-05   4.63505e-05   -0.000202237
2.66459e-05   7.42041e-05   -0.000217945
-3.50977e-05   5.89269e-05   -0.000266076
-3.94413e-05   2.85583e-05   -0.000150899
-4.37375e-05   -7.35247e-05   0.000138766
-2.12719e-05   -7.51975e-05   0.000154146
-5.87734e-05   -0.000106476   0.000155129
-3.36148e-05   3.85931e-05   -0.000135137
4.52886e-05   3.76687e-05   -8.10945e-05
7.91768e-06   3.08864e-05   -0.000114849
7.00878e-05   5.88843e-05   -0.000157764
1.00623e-05   3.93135e-05   -0.00018957
1.6587e-05   6.16319e-05   -0.000234261
0.000115431   -3.669e-05   0.00018989
0.000109092   -2.98184e-05   0.000184208
0.000117682   -2.67406e-05   0.000175295
8.91013e-05   -3.51185e-05   0.000174927
-3.99665e-05   -3.61336e-05   9.41211e-05
-6.87467e-05   -5.09752e-05   0.000110921
-4.9927e-05   -3.30112e-05   9.20174e-05
0.000127241   -2.84907e-05   0.00018528
0.000138249   -1.94471e-05   0.00018327
-9.0097e-05   1.98395e-05   -0.000336907
-7.07369e-05   3.60582e-05   -0.000341671
0.00014904   -1.25607e-05   0.000169994
0.000126294   -1.7735e-05   0.000159945
0.000125248   -8.92519e-06   0.000161386
0.000138826   -2.04263e-05   0.000178371
0.000134695   -2.30333e-05   0.000173139
0.000149842   -1.14594e-05   0.000175408
3.31409e-05   1.13381e-05   0.000155332
5.33826e-05   1.57269e-05   0.000152225
2.97519e-05   8.18247e-06   0.000175028
1.13391e-05   1.1059e-05   0.000157084
5.92525e-05   2.05766e-05   0.00012357
7.66224e-05   2.67929e-05   9.86103e-05
7.85043e-05   1.77979e-05   0.000150523
4.92372e-05   2.02303e-05   0.00012275
6.53022e-05   1.5486e-05   0.000160289
8.44973e-05   2.02198e-05   0.000144744
5.26016e-05   1.62362e-05   0.000139122
6.80602e-05   1.85571e-05   0.000143462
6.55823e-05   1.32379e-05   0.000174647
4.53298e-05   1.05833e-05   0.000178683
3.5709e-05   1.4302e-05   0.000168397
-0.000712642   -0.000296511   -0.00366729
-9.9623e-06   -2.82019e-05   -0.00191718
-0.000353297   -4.03505e-05   -0.00150506
-0.000240642   -1.74843e-06   -0.00103283
0.000421666   6.90142e-05   -0.00379024
5.46484e-05   -5.34552e-05   -0.00112996
-3.18187e-05   -0.000141568   -0.00093045
0.000248143   -4.97656e-05   -0.00158273
-0.000249391   -7.27668e-05   -0.00133301
-0.000114709   -4.75189e-05   -0.000961299
-2.52358e-05   -5.70346e-05   -0.00123647
-0.000149113   -8.0662e-05   -0.0011673
0.000167297   -7.87651e-05   -0.00165529
-1.59762e-05   -2.66097e-05   9.66935e-05
-7.57297e-06   -2.00124e-05   7.67522e-05
-3.67947e-05   -2.04397e-05   4.64648e-05
-2.01395e-05   -1.18747e-05   3.63452e-05
-0.000220225   -5.78545e-05   -0.000258068
-0.000203238   -3.35223e-05   -0.000309371
-0.000136549   -1.86285e-05   -0.000261344
-0.000163916   -3.32628e-05   -0.000279446
-0.000246976   -5.38305e-05   -0.000322749
-0.000278671   -6.03428e-05   -0.000302794
-0.000255139   -7.26134e-05   -0.000265558
-0.000269482   -6.64527e-05   -0.000301284
-0.000273513   -8.63994e-05   -0.000229643
4.47339e-05   1.6988e-05   0.00015166
1.74451e-05   1.44888e-05   0.000194874
-1.03023e-05   2.2214e-05   0.000168271
-0.0002312   -3.33767e-05   -0.000292456
-0.000195813   -5.24603e-05   -0.000216275
-4.72274e-06   -1.97691e-05   -0.000701582
5.75086e-05   8.56199e-06   0.00020561
7.1277e-05   1.04575e-05   0.000195597
7.34278e-05   8.231e-06   0.000202474
4.85966e-05   1.06365e-05   0.000191348
1.16494e-05   -0.000112955   -0.000944794
8.31264e-05   2.34605e-05   -0.000638845
-5.24577e-05   8.21354e-05   -0.000923146
-0.000111986   -4.27661e-05   8.73333e-05
-9.12109e-05   -4.0951e-05   9.02111e-05
-9.18324e-05   -3.46081e-05   6.42623e-05
-9.54873e-05   -3.89267e-05   7.92606e-05
7.31436e-05   1.75668e-05   1.64729e-05
7.75276e-05   2.92557e-05   -3.85845e-05
0.000112727   2.61292e-05   2.39436e-05
0.000137805   4.88355e-05   -5.28656e-05
0.000102847   4.45104e-05   -5.23716e-05
0.000173457   6.25075e-05   -3.87528e-05
0.000163588   4.70307e-05   -4.97707e-06
0.000187836   5.93558e-05   1.54564e-05
5.40947e-05   6.53069e-05   -0.000267744
5.81317e-05   5.80426e-05   -0.000250051
7.81384e-05   6.82978e-05   -0.000244048
4.94158e-05   6.18157e-05   -0.000233496
8.01183e-05   4.87262e-05   -0.000189566
9.33239e-05   5.80557e-05   -0.000197894
5.27537e-05   4.98215e-05   -0.000210121
5.86044e-05   4.31302e-05   -0.000155097
3.6818e-05   5.72244e-05   -0.000274179
7.21017e-05   -2.78561e-05   0.000193888
8.41863e-05   -1.74029e-05   0.0001909
6.60737e-05   -8.14237e-06   0.000189436
-3.58526e-07   4.75967e-05   -0.000269896
4.19088e-05   4.57245e-05   -0.000243514
-0.000159756   -1.78843e-05   -0.000329742
-0.000158324   -6.80486e-06   -0.00034475
-0.000213553   -4.73441e-05   -0.00031109
-0.000253728   -4.07864e-05   -0.000348275
-0.000133537   -3.74734e-05   -0.000190668
-0.00018687   -3.27639e-05   -0.000323343
-0.000205329   -9.96511e-05   0.00010966
-0.000259034   -5.70114e-05   0.000218294
-0.000221111   -9.91372e-05   0.000195989
-0.000283128   -3.86103e-05   0.00018916
4.76014e-05   1.06492e-05   0.000189835
-0.000141935   -0.000142559   0.000105545
-9.702e-05   -0.000149435   -5.97765e-05
-0.000286108   -3.50762e-05   0.000125491
-0.00018705   -0.000108989   0.000141114
-0.000337929   9.76031e-05   0.000253102
-0.000306744   1.31551e-05   8.59672e-05
-0.000239549   -7.40808e-05   0.000110411
8.43389e-05   1.59076e-05   0.000169955
0.000101844   1.76755e-05   0.00016694
8.62824e-05   1.33549e-05   0.000182582
7.65401e-05   1.4613e-05   0.000161902
8.71598e-05   1.07566e-05   0.000192756
9.32238e-05   1.22034e-05   0.00017961
-7.27513e-05   -1.66529e-05   -0.000191187
-4.63469e-05   -7.45253e-06   -0.000174363
-3.73878e-05   -1.20127e-06   -0.00016661
-8.18575e-05   -2.11808e-05   -0.000139764
-5.19852e-05   -6.47952e-06   -0.000205792
-3.18028e-05   3.94269e-06   -0.000216678
-7.73854e-06   1.14068e-05   -0.000198321
-2.6678e-05   1.75453e-06   -0.000187546
-3.6678e-05   -5.51589e-06   -0.000125336
-2.17178e-05   8.14124e-07   -0.00015731
7.2541e-07   7.85606e-06   -0.000140635
-2.99916e-06   9.49442e-06   -0.000170444
8.17771e-05   6.48291e-06   0.000150684
7.91117e-05   6.91839e-06   0.000165424
0.000102376   7.71217e-06   0.000149184
9.19649e-05   1.39007e-05   0.000148454
6.1447e-05   1.19591e-05   0.000165684
7.85501e-05   7.94555e-06   0.000182068
7.20237e-05   -1.58218e-07   0.000160708
7.40321e-05   5.69284e-07   0.000175387
7.27456e-05   1.35084e-05   0.000142148
5.9251e-05   8.36931e-06   0.000164111
0.000174717   2.91415e-05   0.000114037
0.000131531   1.97425e-05   0.000111824
0.00017298   3.07455e-05   0.000127181
0.000189347   4.17399e-05   9.31458e-05
0.000168347   2.20327e-05   0.000140968
0.000128802   1.23005e-05   0.000121375
0.000185949   4.25358e-05   7.20869e-05
0.000202429   4.05265e-05   0.00011325
0.000206279   4.06629e-05   0.000107018
5.36412e-05   -3.928e-05   0.000177002
5.08281e-05   -9.05406e-06   0.000165555
5.38207e-05   -2.56669e-05   0.000185379
6.11178e-05   -2.42053e-05   0.000181003
4.79336e-05   -8.85309e-05   0.000178361
5.77857e-05   -7.9018e-05   0.000183736
4.60051e-05   -9.1709e-05   0.000181314
5.18649e-05   -7.417e-05   0.000175061
4.93356e-05   -3.14684e-05   0.000146708
5.87645e-05   9.89006e-07   0.000161307
6.37643e-05   -4.46599e-05   0.000182656
7.01476e-05   -3.93285e-05   0.000188743
5.96933e-05   4.9263e-06   0.000209851
5.95356e-05   6.83882e-06   0.000208989
7.36624e-05   6.48942e-06   0.000205791
6.60912e-05   6.57513e-06   0.000198847
6.57311e-05   -2.02675e-05   0.000194956
5.71109e-05   -4.98964e-05   0.000176178
5.94049e-05   -3.58381e-05   0.000182973
2.1843e-05   3.49668e-05   2.34152e-05
4.56611e-05   4.05475e-05   1.53954e-05
1.02329e-06   2.41889e-05   5.54179e-05
4.79758e-06   3.88774e-05   -1.83804e-06
1.11379e-05   5.25569e-05   -4.01243e-05
-1.98381e-05   3.60443e-05   -8.11289e-06
3.52255e-05   5.94845e-05   -4.65322e-05
3.83999e-05   5.60672e-05   -4.72619e-05
5.32539e-05   5.22388e-05   -1.7002e-05
-0.000295791   -2.77697e-05   -8.05266e-05
-0.000121578   -6.7032e-05   -0.000338827
-0.00020111   -8.2087e-05   -8.31352e-05
-7.78932e-05   -0.000118646   -0.000197874
-3.1824e-05   -1.53644e-05   -0.00080573
1.47815e-05   -6.02499e-05   -0.000700301
5.83822e-05   -4.56976e-05   -0.000735729
-6.30082e-06   -6.54563e-05   -0.00040033
-9.11443e-05   -0.00011623   -0.000508132
-2.55333e-05   -5.13581e-05   -0.000547823
-0.000149756   -5.00928e-05   -0.000376403
-0.000274504   1.49475e-05   -0.000367974
-0.000282112   -1.23338e-05   -0.000213455
-0.000318964   5.08935e-05   -0.000371533
-0.000176707   -0.000130336   -0.000149456
-0.000366144   0.000171516   -0.000187671
-0.000108033   -0.000174953   -0.000116733
-0.000168282   -0.000151823   -1.84747e-05
-0.00014309   -0.000209819   -0.000740666
-3.93545e-05   -0.000204501   -0.000519648
-0.000209833   -7.18474e-05   -3.12028e-05
-0.000798471   -0.000399651   -0.00124497
-0.000408735   -0.000236188   -0.000760986
-0.000234564   -0.000478031   -0.000686847
-0.00068535   -0.000257156   -0.00167918