# vtk DataFile Version 2.3
FEM Grid Data
ASCII
DATASET UNSTRUCTURED_GRID
POINTS 28959 float
-526185   -1.53048e+06   5.01694e+06
-50778.8   -1.37681e+06   4.41256e+06
-74015.3   -1.8988e+06   4.92592e+06
-149872   -2.16568e+06   4.23679e+06
-1.19938e+06   -1.78044e+06   5.31267e+06
-952779   -1.113e+06   5.08147e+06
-1.21683e+06   -1.80527e+06   4.82005e+06
-909908   -2.17288e+06   5.22337e+06
-794076   -1.80894e+06   5.37867e+06
-922229   -1.22497e+06   4.40823e+06
-478003   -1.0431e+06   5.16958e+06
-70857   -957782   4.97573e+06
-118895   -1.28308e+06   5.58323e+06
-574369   -1.15349e+06   5.58323e+06
-967492   -1.36162e+06   5.48114e+06
-400017   -1.6225e+06   5.48091e+06
-464739   -2.09257e+06   5.31395e+06
-53045.6   -2.17372e+06   -3.48351e+06
1.04495e+06   -1.99518e+06   -3.48061e+06
751766   -2.95117e+06   -3.97285e+06
832951   -2.30568e+06   -4.59536e+06
-201619   -2.95065e+06   -4.37616e+06
-223581   -2.81973e+06   -3.03469e+06
-846909   -2.43455e+06   -3.47e+06
80926   -2.23187e+06   -4.75467e+06
-626300   -2.01932e+06   -4.22319e+06
123098   -1.50647e+06   -3.94708e+06
-2.55128e+06   -474511   3.39756e+06
-2.19669e+06   -22015.4   4.08418e+06
-2.40174e+06   233207   3.19193e+06
-3.19623e+06   533982   3.44142e+06
-2.53701e+06   -1.26623e+06   4.46635e+06
-1.68532e+06   -1.12813e+06   3.74436e+06
-2.42625e+06   -496390   4.70757e+06
-2.1086e+06   -671392   2.71165e+06
-3.17683e+06   -597890   2.71408e+06
1.23189e+06   -1.7144e+06   4.90315e+06
1.28408e+06   -771360   4.49506e+06
2.03331e+06   -1.59108e+06   5.11537e+06
2.04555e+06   -1.51489e+06   4.53583e+06
-2.61201e+06   -1.29148e+06   2.77345e+06
-2.72404e+06   -1.29973e+06   3.6482e+06
1.78798e+06   2.85567e+06   947780
2.47323e+06   2.40025e+06   609872
1.93239e+06   2.917e+06   -83627
2.11813e+06   3.36987e+06   511166
-1.76858e+06   -418446   3.57109e+06
1.3732e+06   -1.63655e+06   -4.27257e+06
1.79692e+06   -1.79263e+06   -3.06863e+06
1.96893e+06   -2.54572e+06   -3.2912e+06
-221665   -304169   -5.10324e+06
-140904   -132090   -4.2766e+06
-586190   730934   -4.97612e+06
-933359   -322267   -3.98591e+06
-1.0692e+06   -1.3094e-10   -3.33269e+06
-1.22839e+06   776688   -3.18399e+06
-608949   386864   -3.99143e+06
-1.50448e+06   302157   -4.01461e+06
-1.27262e+06   1.27819e+06   -3.74991e+06
200837   655954   -4.57811e+06
-287216   1.09015e+06   -3.99691e+06
-2.14313e-10   -2.62458e-26   -3.5e+06
-1.4077e+06   -897017   5.48148e+06
-1.41089e+06   -1.38938e+06   5.37698e+06
-1.48434e+06   -1.23024e+06   4.93197e+06
-299905   -519957   4.60042e+06
-1.07676e+06   -561965   5.11693e+06
-654734   -422935   5.16787e+06
2.25682e+06   -3.06652e+06   -2.56776e+06
2.70411e+06   -2.18929e+06   -2.92881e+06
1.72247e+06   -2.45732e+06   -2.56198e+06
-952271   -868110   5.58323e+06
1.82344e+06   -4.23606e+06   -2.31095e+06
2.75324e+06   -3.7488e+06   -2.21891e+06
2.795e+06   -4.39498e+06   -2.38851e+06
2.31806e+06   -3.83873e+06   -2.86069e+06
2.8903e+06   -3.41878e+06   -1.19466e+06
3.52523e+06   -3.33825e+06   -1.95766e+06
3.15627e+06   -2.79679e+06   -2.27449e+06
3.16237e+06   -4.30649e+06   -2.07038e+06
2.57488e+06   -4.26272e+06   -1.57522e+06
2.05547e+06   -3.26627e+06   -1.78518e+06
-814525   -3.39665e+06   -3.80721e+06
-1.05971e+06   -2.78952e+06   -2.83681e+06
48671.5   -3.73937e+06   -3.76955e+06
391112   -3.19957e+06   -2.60542e+06
-1.38488e+06   2.79074e+06   2.64166e+06
-783563   2.02012e+06   3.33975e+06
-477065   2.65256e+06   3.73814e+06
-1.51043e+06   2.78638e+06   3.60959e+06
-1.37815e+06   2.13344e+06   2.40813e+06
-1.83762e+06   2.11771e+06   2.87022e+06
2.63198e+06   -2.3858e+06   -4.01003e+06
2.1722e+06   -3.28571e+06   -3.61733e+06
-1.37279e+06   2.4557e+06   4.38062e+06
-630265   1.77553e+06   4.35584e+06
-1.11156e+06   1.48321e+06   2.96893e+06
-1.42804e+06   1.13259e+06   3.7054e+06
-1.55992e+06   1.84661e+06   3.62682e+06
-70493.5   1.59129e+06   3.11654e+06
-533887   2.18592e+06   2.6808e+06
3.64041e+06   1.45774e+06   -1.10235e+06
3.59466e+06   1.74776e+06   13251
4.45119e+06   1.86704e+06   -498221
3.29533e+06   2.30193e+06   -685289
4.5782e+06   806132   -740449
3.67254e+06   510254   -1.60253e+06
4.15725e+06   954789   -2.22628e+06
4.13269e+06   2.13696e+06   -1.6139e+06
3.20077e+06   1.25176e+06   -2.30352e+06
3.07922e+06   2.39834e+06   -1.42858e+06
3.29434e+06   961057   -688266
4.81786e+06   1.77581e+06   -1.28705e+06
-2.02354e+06   3.26065e+06   875393
-3.23633e+06   3.56999e+06   436939
-2.38483e+06   3.93387e+06   743046
-2.34324e+06   3.41376e+06   40513.9
-2.52804e+06   3.62084e+06   1.91478e+06
-3.0923e+06   2.63763e+06   1.17313e+06
-2.3973e+06   2.27652e+06   1.14908e+06
-2.13638e+06   2.74234e+06   406754
-1.60215e+06   3.68284e+06   303810
-1.37195e+06   3.15667e+06   634958
-2.28667e+06   -2.49108e+06   -2.19331e+06
-2.46926e+06   -3.06405e+06   -1.50672e+06
-3.27023e+06   -2.62091e+06   -2.4517e+06
-2.88496e+06   -3.48625e+06   -2.66645e+06
-2.36901e+06   -1.30462e+06   -2.22166e+06
-2.36908e+06   -2.03293e+06   -1.58261e+06
-1.52726e+06   -2.49379e+06   -1.92315e+06
-1.80884e+06   -2.20403e+06   -2.83035e+06
-1.93798e+06   -3.64809e+06   -2.4648e+06
-1.79924e+06   -2.75831e+06   -1.18511e+06
2.59261e+06   3.92241e+06   -3.27505e+06
2.72372e+06   4.12847e+06   -2.89309e+06
2.27774e+06   3.87106e+06   -2.7563e+06
3.03122e+06   3.34306e+06   -2.62738e+06
3.02434e+06   4.12455e+06   -2.58348e+06
2.26627e+06   4.22936e+06   -2.23173e+06
2.178e+06   3.04421e+06   -2.39753e+06
2.57744e+06   4.40808e+06   -2.59972e+06
1.46849e+06   -3.38535e+06   -3.05432e+06
259847   3.56021e+06   2.30334e+06
-1.00243e+06   3.3375e+06   2.05004e+06
-909481   3.96478e+06   2.68821e+06
-239592   3.75332e+06   1.31839e+06
622268   2.87752e+06   3.13036e+06
390509   2.19639e+06   2.69692e+06
777275   2.68791e+06   2.10261e+06
1.2479e+06   -5.34932e+06   -1.63109e+06
1.77059e+06   -5.16361e+06   -1.74214e+06
1.39322e+06   -5.15803e+06   -2.0704e+06
1.49358e+06   -4.69021e+06   -1.70879e+06
317774   4.31436e+06   1.82868e+06
517073   4.61913e+06   2.58161e+06
1.21533e+06   3.80702e+06   2.44124e+06
1.23688e+06   2.89701e+06   2.46698e+06
678212   3.64627e+06   1.55034e+06
311961   3.07076e+06   1.65018e+06
-4.11639e+06   -13315.7   3.98598e+06
-4.36891e+06   187287   3.70276e+06
-4.11584e+06   476253   3.95802e+06
-3.58288e+06   -26192.3   3.89354e+06
-3.56608e+06   -721046   4.42675e+06
-2.97317e+06   -135076   4.33229e+06
-3.18985e+06   -558851   4.7271e+06
-3.42814e+06   -939489   3.89979e+06
-3.02996e+06   848559   4.25831e+06
-3.50579e+06   -177809   4.52888e+06
-3.41357e+06   272023   4.59417e+06
-4.13241e+06   154110   3.06637e+06
-3.81925e+06   816989   4.1927e+06
1.64812e+06   -4.39698e+06   -3.28378e+06
815346   -4.04821e+06   -2.9391e+06
-2.27089e+06   1.16043e+06   3.94514e+06
-1.76998e+06   38318.2   3.01922e+06
-1.72945e+06   379739   3.61726e+06
-1.5561e+06   -631825   4.86525e+06
-1.01683e+06   -127751   4.04263e+06
-2.20011e+06   -981089   5.19902e+06
-2.30024e+06   -469147   5.22702e+06
-1.69307e+06   -23129.9   4.77367e+06
1.75683e+06   -5.39709e+06   786009
1.97287e+06   -5.37007e+06   320915
1.28122e+06   -5.1519e+06   119510
2.24258e+06   -4.59852e+06   370713
1.99539e+06   1.93251e+06   2.12928e+06
2.49297e+06   2.87299e+06   2.56089e+06
1.47554e+06   2.69281e+06   3.11837e+06
2.16335e+06   1.87053e+06   3.05295e+06
889817   1.54465e+06   3.01202e+06
1.25537e+06   2.11629e+06   2.48905e+06
1.77159e+06   2.06497e+06   3.72543e+06
1.19431e+06   2.8097e+06   4.07048e+06
826950   1.96292e+06   3.59077e+06
-4.81132e+06   -2.77827e+06   -1.4019e+06
-4.74296e+06   -2.61558e+06   -1.86975e+06
-5.00707e+06   -2.31295e+06   -1.55318e+06
-4.74897e+06   -2.04241e+06   -1.2109e+06
-2.98994e+06   1.66862e+06   -725259
-3.73485e+06   1.32014e+06   -1.70535e+06
-4.03844e+06   2.03903e+06   -969969
-3.26316e+06   2.05982e+06   -1.42834e+06
-5.08179e+06   2.47565e+06   -937769
-4.97657e+06   2.47122e+06   -1.3999e+06
-4.2463e+06   2.7718e+06   -851029
-4.68664e+06   2.00645e+06   -488483
-3.46269e+06   2.11504e+06   124817
-3.49831e+06   2.97001e+06   -849445
-4.13106e+06   2.55765e+06   -1.76472e+06
-2.91016e+06   4.36985e+06   -74863.9
3.13745e+06   1.09067e+06   4.66902e+06
3.31192e+06   1.53684e+06   4.41613e+06
3.45754e+06   953528   3.77818e+06
2.82303e+06   1.39052e+06   3.49793e+06
3.93707e+06   652479   4.11177e+06
4.207e+06   1.14816e+06   3.71696e+06
3.66872e+06   197613   3.40909e+06
3.63258e+06   239777   4.42491e+06
3.03888e+06   191277   4.31468e+06
3.53005e+06   898201   4.42322e+06
3.4491e+06   2.03177e+06   4.09982e+06
3.75592e+06   1.36331e+06   4.10698e+06
1.38138e+06   -780715   -3.11966e+06
2.15255e+06   -833585   -2.6309e+06
2.40788e+06   -1.53495e+06   -3.81101e+06
1.24499e+06   -2.03951e+06   -2.55742e+06
1.99258e+06   -1.73374e+06   -2.29647e+06
888225   -1.50778e+06   -3.03112e+06
1.69894e+06   -2.61714e+06   -4.03694e+06
984552   873869   -3.85483e+06
716878   1.23844e+06   -5.05147e+06
313559   1.5389e+06   -3.89725e+06
1.68105e+06   871392   -4.95356e+06
1.00023e+06   410340   -4.9392e+06
1.0692e+06   -4.74822e-10   -3.33269e+06
1.34708e+06   798059   -3.13025e+06
2.07158e+06   604245   -3.37305e+06
534602   925958   -3.33269e+06
936509   123937   -4.05213e+06
2.07777e+06   413630   -4.35966e+06
1.65875e+06   1.45318e+06   -4.25741e+06
-4.2536e+06   -3.43145e+06   -1.72189e+06
-4.00818e+06   -3.53934e+06   -2.05924e+06
-4.2207e+06   -3.23034e+06   -2.14091e+06
-3.60071e+06   -3.52863e+06   -1.81333e+06
-4.09698e+06   -3.06318e+06   -1.54915e+06
-4.07517e+06   -2.40864e+06   -2.4077e+06
-4.00059e+06   -2.03894e+06   -1.64526e+06
-4.45777e+06   -2.85389e+06   -2.19466e+06
-3.48152e+06   -3.20057e+06   -1.1461e+06
-4.41616e+06   -2.73063e+06   -1.01114e+06
-3.18722e+06   -2.34869e+06   -996539
-4.52525e+06   -3.2705e+06   -1.28796e+06
-4.52267e+06   -3.04213e+06   -1.76742e+06
245445   -3.57225e+06   2.88188e+06
795164   -4.01675e+06   1.72564e+06
1.24301e+06   -4.5689e+06   2.20009e+06
[...]
POINT_DATA 28959
VECTORS displacement float
-0.000289499   0.000715731   -0.000122972
-0.000336712   0.000130416   -0.000439107
-0.000373918   0.000727322   0.000154002
-0.000315674   0.000214106   3.99459e-05
-0.000169289   0.000516225   -8.98557e-05
-0.000389855   0.000283327   -0.000510747
-0.000283147   0.000206952   -0.000223641
-0.000176425   0.000700631   9.58075e-05
-0.000158309   0.000926863   9.00636e-05
-0.000379134   -2.80939e-05   -0.000600385
-0.000297713   0.000765624   -0.000424865
-0.000462669   0.0005874   -0.000660304
-0.000195086   0.00239398   0.000269058
0.000109002   0.00158743   -1.67089e-05
-9.67124e-05   0.000868605   -0.000265314
-0.000168567   0.00162679   6.98651e-05
-0.000207369   0.00110663   0.0002532
6.1604e-05   8.03208e-06   3.16664e-05
6.0714e-05   -6.9195e-06   8.84727e-05
7.23918e-05   4.56831e-08   6.86264e-05
0.000110771   7.1872e-06   7.37652e-05
0.000100066   1.74504e-05   1.7236e-05
3.06569e-05   2.97365e-06   2.14251e-05
5.90679e-05   1.49227e-05   -1.7306e-05
0.000125098   2.05045e-05   3.56525e-05
0.000105599   2.54077e-05   2.98068e-07
9.50005e-05   1.37641e-05   4.6269e-05
-0.000436545   -9.96693e-05   -0.000519757
-0.000483764   -0.000100988   -0.00067997
-0.000419943   -3.95499e-05   -0.000515305
-0.000390508   -2.09497e-05   -0.000381883
-0.000454017   -0.000104414   -0.000446947
-0.000409794   -0.000125515   -0.000556574
-0.000532245   -0.000100816   -0.000650202
-0.000437275   -0.000138101   -0.00052073
-0.000404627   -7.05151e-05   -0.00037943
-0.000573159   0.000437007   4.3271e-05
-0.000204621   4.33707e-05   -0.000601482
-0.000593413   0.000276035   7.51497e-05
-0.000367537   5.25283e-05   -5.12904e-05
-0.000396868   -0.000125545   -0.000357118
-0.000418946   -0.00010638   -0.000402631
6.62989e-06   3.93277e-05   0.000139425
3.42287e-05   2.66518e-05   0.000128588
3.60029e-05   1.94396e-05   0.000165769
1.83524e-05   2.6732e-05   0.000172522
-0.000452204   -0.00011638   -0.0007357
0.000101273   -2.59849e-06   0.000102547
4.54853e-05   -2.26729e-05   0.000119918
4.09378e-05   -2.60045e-05   0.000122726
0.000172243   3.89024e-05   4.00311e-05
0.000134352   2.80482e-05   4.70483e-05
0.000184437   4.85916e-05   3.69715e-05
0.000120588   3.54686e-05   3.97249e-06
9.14015e-05   2.90962e-05   4.98312e-07
9.89041e-05   3.38351e-05   5.0331e-06
0.000131346   3.42025e-05   3.133e-05
0.000135541   4.83073e-05   -1.83547e-05
0.000137902   4.54899e-05   1.22459e-05
0.000158863   3.01939e-05   7.34034e-05
0.000142065   3.26652e-05   5.84981e-05
9.97156e-05   1.71152e-05   5.5564e-05
-0.000503168   2.97989e-05   -0.000720406
-0.000281586   0.0002611   -0.000365648
-0.000406823   -2.21137e-06   -0.000535342
-0.000503101   -0.000199366   -0.00162096
-0.000687359   -0.000148407   -0.0011583
-0.000747644   -0.000255002   -0.00158132
-3.32443e-07   -4.16131e-05   0.000132843
3.03684e-05   -4.29496e-05   0.000146256
1.20872e-05   -2.96892e-05   0.000116342
-0.000212244   0.000503021   -0.000588781
-2.96656e-05   -3.84305e-05   0.000116968
-2.93999e-05   -5.85486e-05   0.000147813
-3.54359e-05   -5.8967e-05   0.00014754
-2.44077e-06   -4.11989e-05   0.000132381
-6.01372e-05   -7.65329e-05   0.000153564
-3.24072e-05   -7.98402e-05   0.000166055
-7.13913e-06   -6.42893e-05   0.000157043
-4.8962e-05   -7.19992e-05   0.000158372
-6.51988e-05   -6.4176e-05   0.000144931
-3.47354e-05   -4.86506e-05   0.000129188
7.07344e-05   1.64913e-05   -1.84165e-05
2.39797e-05   6.54552e-06   -2.60391e-05
5.90697e-05   5.3883e-06   2.98334e-05
3.96993e-06   -9.50092e-06   5.632e-05
-0.00015489   9.92115e-06   4.06262e-05
-0.000197773   -4.44987e-05   -0.000140771
-0.000147835   -0.000200407   0.000105827
-0.000147515   -0.000159007   9.75371e-05
-0.000181566   7.31677e-05   -0.000104117
-0.000219027   1.36345e-05   -0.000112417
6.94256e-05   -3.18683e-05   0.000143376
3.97872e-05   -2.93458e-05   0.00012717
-9.71135e-05   -0.00036739   0.000104193
-0.000152367   -0.000317526   -0.000213369
-0.00028358   8.09392e-05   -0.000404739
-0.000309139   -4.54318e-05   -0.00057941
-0.000227281   -7.81722e-05   -0.000205754
-0.000194891   9.73389e-05   -0.000464278
-0.000160076   6.88463e-05   -8.48028e-05
6.16316e-05   -3.11938e-05   0.000161539
5.29282e-05   -1.85397e-05   0.000141042
5.92938e-05   -3.76536e-05   0.000165883
6.00718e-05   -9.14931e-06   0.000163386
4.90733e-05   -6.34513e-05   0.000161973
5.49375e-05   -4.63114e-05   0.000161671
7.32929e-05   -4.709e-05   0.000178626
7.50885e-05   -3.0999e-05   0.000181446
7.94901e-05   -2.6378e-05   0.000168163
7.19466e-05   -1.13095e-05   0.000172358
5.02205e-05   -3.1668e-05   0.000144571
6.7212e-05   -4.94003e-05   0.000181088
-4.62115e-05   2.1617e-05   2.691e-05
-2.32314e-05   4.63437e-05   -5.03855e-05
-2.69357e-05   2.5085e-05   3.16344e-05
4.10847e-06   2.44725e-05   1.16946e-05
-9.94066e-05   1.96796e-05   2.92001e-05
-0.000114087   5.12969e-05   -9.05494e-05
-0.000123629   4.19355e-05   -6.19325e-05
0   0   0
-8.0015e-06   2.47863e-05   7.20446e-05
-2.80252e-05   2.74989e-05   7.35766e-05
-7.52389e-06   9.58956e-06   -0.000105411
-5.16174e-05   -7.72175e-06   -0.000123528
1.01707e-05   2.56347e-05   -0.000179676
1.86638e-05   1.96613e-05   -0.000156395
2.85808e-06   1.96169e-05   -9.88493e-05
-4.61247e-05   -9.78638e-07   -0.000108409
-2.49817e-05   -3.75798e-06   -5.03202e-05
3.01691e-05   1.77759e-05   -7.03052e-05
3.81653e-06   7.36916e-06   -8.77741e-05
-7.03622e-05   -1.88266e-05   -6.96047e-05
0.000130457   3.66165e-06   0.000193899
0.000117708   1.68813e-06   0.000198274
0.000113926   3.81438e-06   0.000187613
0.00010486   -6.62226e-06   0.000192163
0.000106168   -2.28565e-06   0.000202246
9.77055e-05   4.66724e-06   0.000192615
9.80328e-05   2.47245e-07   0.000173994
0.000109644   3.17645e-06   0.0001996
1.83952e-05   -2.14796e-05   0.000102793
-8.92813e-05   -3.9717e-06   0.000189907
-0.000101849   1.85747e-05   0.000117498
-0.000110765   -6.31716e-05   0.00020933
-5.06632e-05   2.84875e-05   0.000158679
-0.000129249   -3.42227e-05   0.000115156
-0.00010879   0.000110165   -0.000104083
-6.03312e-05   6.51595e-05   5.47416e-05
-7.03879e-05   -3.7892e-05   9.42669e-05
-6.82304e-05   -4.59331e-05   0.000115445
-4.94934e-05   -3.51437e-05   9.78805e-05
-6.05503e-05   -4.05027e-05   0.000107127
-6.60074e-05   -2.96555e-06   0.000215933
-9.97516e-05   -7.16192e-05   0.000275342
-8.53247e-05   -1.36102e-05   0.000219122
-6.62167e-05   2.91679e-05   0.000101063
-4.76598e-05   2.9166e-05   0.0001787
-6.07261e-05   4.24613e-05   0.000124723
-0.00041789   -3.27926e-05   -0.000382548
-0.000397626   -1.73745e-05   -0.000355581
-0.000386683   -2.18194e-05   -0.000349442
-0.000434048   -4.14421e-05   -0.000411287
-0.000454306   -6.74412e-05   -0.000410808
-0.000475637   -8.13666e-05   -0.000524852
-0.000479341   -7.463e-05   -0.0004671
-0.000434753   -7.43772e-05   -0.000394246
-0.000364184   -6.18927e-05   -0.000372786
-0.000444925   -6.25046e-05   -0.000432738
-0.000415269   -6.5267e-05   -0.000415024
-0.000381942   -1.38054e-05   -0.000347604
-0.000361321   -3.83152e-05   -0.000331704
1.32591e-05   -2.54164e-05   0.000104461
8.73151e-06   -1.34692e-05   7.19758e-05
-0.000320822   -6.97147e-05   -0.000376684
-0.000485447   -6.98196e-05   -0.000713806
-0.000418654   -6.67622e-05   -0.000745733
-0.000579094   -0.000142184   -0.000914583
-0.000499216   -0.000123512   -0.00121278
-0.000492162   -7.39413e-05   -0.000609568
-0.000566595   -0.000127353   -0.000722914
-0.000601851   -0.000149033   -0.000973619
-0.000182938   -7.11298e-05   0.000153698
-0.000163326   -7.33276e-05   0.000149674
-0.000147283   -6.09653e-05   0.000121293
-0.000150128   -8.5561e-05   0.000158454
1.68409e-05   6.60436e-05   -3.66615e-05
-3.6471e-05   9.55361e-06   0.000126399
-9.46092e-05   -1.41014e-05   8.03195e-05
-2.82414e-05   8.61921e-06   -6.56272e-05
-5.82655e-05   0.000103465   -0.000381622
-3.40151e-05   8.41686e-05   -0.000107371
-0.000106353   -5.93602e-05   -7.68438e-05
-0.000201362   -0.000250549   0.000166871
-0.000112848   -5.02949e-05   -0.000200094
-6.30102e-05   1.87513e-05   -0.00031526
-2.8418e-05   3.0629e-05   -0.000303616
-5.15725e-05   3.16032e-05   -0.000326621
-7.67737e-05   2.35504e-05   -0.00030625
-3.11326e-05   4.08255e-05   -9.69864e-05
2.39572e-05   6.53751e-05   -0.000155496
-3.4534e-06   7.26773e-05   -0.000164262
2.99271e-05   5.83656e-05   -0.00010054
1.01249e-05   0.000106232   -0.000231624
4.06211e-05   0.000107143   -0.00021954
1.7824e-05   8.31906e-05   -0.000154971
-4.02618e-05   8.67173e-05   -0.000220812
-7.2712e-05   5.47516e-05   -0.000130122
2.88507e-05   6.29322e-05   -8.99458e-05
6.65077e-05   8.7683e-05   -0.00014814
2.79524e-05   3.96048e-05   5.48942e-07
-0.000103279   -0.00010587   -0.000129701
-0.000108139   -9.50493e-05   -2.74495e-05
-3.14991e-05   -7.10114e-05   -5.28341e-05
-2.23584e-05   -3.54386e-05   -9.81049e-05
-6.76425e-05   -9.99802e-05   -1.40998e-05
-3.85558e-05   -8.83013e-05   4.70982e-05
-2.26809e-05   -9.84705e-05   -4.05639e-05
-9.73929e-05   -0.000108024   -8.004e-05
-6.71979e-05   -0.000101197   -0.00020311
-8.7586e-05   -9.79682e-05   -6.20911e-05
-0.000101502   -8.72627e-05   4.96739e-05
-7.18321e-05   -8.79412e-05   1.30864e-05
6.89397e-05   -9.9044e-06   0.0001085
5.13894e-05   -2.72688e-05   0.000132278
7.78905e-05   -2.54351e-05   0.000139888
1.90857e-05   -2.10097e-05   9.7973e-05
2.05831e-05   -3.46039e-05   0.000126422
5.02248e-05   -7.66479e-06   8.33692e-05
7.31418e-05   -1.40486e-05   0.000111071
0.000127026   1.1494e-05   0.000109862
0.000183964   3.01715e-05   0.000102381
0.000142168   2.50088e-05   9.21268e-05
0.000167257   1.19533e-05   0.000133077
0.000165437   2.03745e-05   0.000103736
9.28821e-05   8.97987e-07   0.000102335
9.86744e-05   5.37795e-07   0.000121207
0.000101446   -9.48041e-06   0.000143188
0.000108368   1.29876e-05   9.21854e-05
0.000123192   1.04047e-05   9.86597e-05
0.000134178   -2.84111e-06   0.000142197
0.000147026   8.17866e-06   0.000139811
-3.85512e-05   1.22674e-05   -0.00026978
-1.65501e-05   1.67844e-05   -0.000248104
-1.08198e-05   2.37624e-05   -0.00026264
-3.27705e-05   6.981e-06   -0.000216027
-5.0556e-05   1.00454e-05   -0.000255185
8.57336e-06   3.66286e-05   -0.000242683
-4.35283e-05   2.17318e-05   -0.000239762
-6.0947e-06   3.17737e-05   -0.000278819
-7.71906e-05   -8.98465e-06   -0.000207844
-9.18613e-05   3.26729e-06   -0.000285361
-8.91437e-05   -8.57481e-06   -0.000181734
-6.89965e-05   5.82045e-06   -0.000295528
-3.54586e-05   2.06856e-05   -0.000289151
-0.000253122   -4.75153e-05   0.00014919
-0.00020359   -8.30481e-05   0.000138305
-0.000239281   -5.54185e-05   0.000194538
-0.000264614   -2.25953e-05   0.000170237
-0.000273182   -1.46137e-05   0.000213515
-0.000258717   -2.65239e-05   0.000178785
-0.000308474   5.47704e-05   0.000241726
-0.000282817   4.21834e-06   0.000205573
-0.000293038   1.24467e-05   0.0002371
-0.000266725   -1.48304e-05   0.000165162
-0.000225621   -5.25812e-05   0.000125199
1.55626e-05   4.90914e-05   -0.000161825
-5.54424e-05   4.63998e-05   -0.000203969
2.73658e-05   7.45119e-05   -0.000219806
-3.47936e-05   5.90465e-05   -0.000268382
-3.92174e-05   2.84786e-05   -0.000152212
-4.39071e-05   -7.43367e-05   0.000139757
-2.13321e-05   -7.58256e-05   0.000155138
-5.89959e-05   -0.000107485   0.000156019
-3.339e-05   3.86311e-05   -0.000136275
4.60705e-05   3.77523e-05   -8.17887e-05
8.47004e-06   3.08695e-05   -0.00011585
7.11116e-05   5.91095e-05   -0.000159126
1.07072e-05   3.93053e-05   -0.000191223
1.72726e-05   6.18107e-05   -0.000236295
0.000116188   -3.6872e-05   0.000191188
0.000109816   -2.99526e-05   0.000185507
0.000118511   -2.68535e-05   0.00017656
8.97124e-05   -3.52915e-05   0.000176184
-4.00247e-05   -3.65914e-05   9.49661e-05
-6.89976e-05   -5.17212e-05   0.000111897
-4.99838e-05   -3.34116e-05   9.27009e-05
0.000128111   -2.8607e-05   0.000186583
0.000139209   -1.94937e-05   0.000184588
-9.00776e-05   1.9507e-05   -0.000339994
-7.05914e-05   3.58894e-05   -0.000344781
0.000150131   -1.25571e-05   0.000171257
0.000127246   -1.77871e-05   0.000161129
0.000126165   -8.92198e-06   0.000162629
0.000139814   -2.04824e-05   0.000179665
0.000135673   -2.31134e-05   0.000174387
0.000150916   -1.14463e-05   0.000176703
3.31521e-05   1.17782e-05   0.000156138
5.36916e-05   1.61197e-05   0.00015321
2.97993e-05   8.66212e-06   0.000175987
1.12834e-05   1.16492e-05   0.000158198
5.95901e-05   2.08868e-05   0.000124373
7.72289e-05   2.70345e-05   9.93774e-05
7.90296e-05   1.80689e-05   0.000151528
4.96838e-05   2.06454e-05   0.000123803
6.56333e-05   1.5815e-05   0.000161125
8.49748e-05   2.04475e-05   0.000145538
5.27628e-05   1.65613e-05   0.000139831
6.83838e-05   1.88561e-05   0.000144218
6.59444e-05   1.35734e-05   0.000175591
4.55254e-05   1.10298e-05   0.000179644
3.59861e-05   1.48565e-05   0.000169657
-0.000691959   -0.000253989   -0.00344691
-2.22676e-05   -4.23619e-05   -0.0018571
-0.000349946   -5.91919e-05   -0.00147761
-0.000246763   2.14794e-05   -0.00104215
0.000385994   9.79786e-05   -0.00357474
4.18081e-05   -5.7587e-05   -0.00111252
-3.20316e-05   -0.000148964   -0.00093061
0.000230366   -5.66979e-05   -0.00154529
-0.000250345   -7.84767e-05   -0.00131532
-0.000118641   -6.17079e-05   -0.000959281
-3.42417e-05   -6.07553e-05   -0.00121851
-0.000153506   -7.43795e-05   -0.00115789
0.000141546   -5.8465e-05   -0.00159375
-1.58846e-05   -2.68507e-05   9.747e-05
-7.43102e-06   -2.02162e-05   7.74183e-05
-3.6736e-05   -2.07881e-05   4.69624e-05
-1.98953e-05   -1.20846e-05   3.66661e-05
-0.000221172   -5.89111e-05   -0.000260269
-0.000204073   -3.4342e-05   -0.000312132
-0.000136879   -1.9304e-05   -0.000263638
-0.000164439   -3.41035e-05   -0.000281976
-0.000248174   -5.48456e-05   -0.000325684
-0.000279999   -6.13344e-05   -0.000305417
-0.000256455   -7.38009e-05   -0.000267863
-0.000270863   -6.75396e-05   -0.000303952
-0.000274784   -8.76231e-05   -0.000231451
4.51648e-05   1.74929e-05   0.000152945
1.77172e-05   1.51914e-05   0.000196421
-1.02476e-05   2.31584e-05   0.0001697
-0.000232188   -3.41456e-05   -0.000294975
-0.000196558   -5.34649e-05   -0.000218047
-9.54141e-06   -2.54023e-05   -0.000697779
5.79042e-05   8.94815e-06   0.000206825
7.17273e-05   1.07621e-05   0.000196762
7.39077e-05   8.50908e-06   0.000203709
4.90168e-05   1.10909e-05   0.000192765
6.51131e-06   -0.000111038   -0.000937019
7.90482e-05   2.01947e-05   -0.000636897
-5.54193e-05   7.21089e-05   -0.000919148
-0.000112332   -4.35005e-05   8.75273e-05
-9.14342e-05   -4.15465e-05   9.04431e-05
-9.19892e-05   -3.52134e-05   6.43212e-05
-9.57337e-05   -3.95829e-05   7.96169e-05
7.39447e-05   1.76317e-05   1.6565e-05
7.84616e-05   2.93456e-05   -3.89863e-05
0.000113841   2.6276e-05   2.40833e-05
0.000139229   4.91029e-05   -5.34e-05
0.000103987   4.47187e-05   -5.28574e-05
0.000175106   6.29316e-05   -3.9117e-05
0.000165144   4.7351e-05   -5.09135e-06
0.000189504   5.97823e-05   1.56126e-05
5.51428e-05   6.5496e-05   -0.000270119
5.92171e-05   5.81726e-05   -0.000252278
7.93405e-05   6.85375e-05   -0.000246198
5.03798e-05   6.20005e-05   -0.00023554
8.13354e-05   4.88127e-05   -0.000191246
9.4617e-05   5.8233e-05   -0.000199639
5.37593e-05   4.9904e-05   -0.000211974
5.95865e-05   4.3201e-05   -0.000156464
3.77518e-05   5.73221e-05   -0.000276627
7.26289e-05   -2.79169e-05   0.000195001
8.47731e-05   -1.73835e-05   0.000192181
6.66312e-05   -7.97997e-06   0.000190726
2.84534e-07   4.75966e-05   -0.000272287
4.28987e-05   4.57257e-05   -0.000245688
-0.000160258   -1.85853e-05   -0.000332806
-0.000158832   -7.38521e-06   -0.000347911
-0.000214489   -4.83339e-05   -0.000313966
-0.000254954   -4.1646e-05   -0.000351422
-0.00013384   -3.83387e-05   -0.000192278
-0.000187584   -3.36233e-05   -0.00032636
-0.000206737   -0.00010016   0.000108833
-0.000260332   -5.8316e-05   0.000220311
-0.000222211   -0.00010012   0.000197231
-0.00028462   -3.87431e-05   0.000189517
4.79276e-05   1.10938e-05   0.000191052
-0.000142969   -0.000143556   0.00010549
-9.88205e-05   -0.000149091   -6.19784e-05
-0.000287551   -3.40418e-05   0.000124396
-0.000188076   -0.00011071   0.000142006
-0.000339811   9.76139e-05   0.000253144
-0.000307874   1.4223e-05   8.24688e-05
-0.000241295   -7.4642e-05   0.000109397
8.48583e-05   1.6164e-05   0.000170933
0.0001025   1.78671e-05   0.000167967
8.68288e-05   1.35964e-05   0.00018367
7.71214e-05   1.48957e-05   0.000163136
8.77077e-05   1.09748e-05   0.000193943
9.38619e-05   1.2398e-05   0.000180866
-7.25251e-05   -1.72781e-05   -0.000193047
-4.5919e-05   -7.94535e-06   -0.000176054
-3.69405e-05   -1.61149e-06   -0.000168106
-8.17836e-05   -2.18143e-05   -0.000140959
-5.15911e-05   -7.00059e-06   -0.000207752
-3.12577e-05   3.5311e-06   -0.0002187
-7.02744e-06   1.11014e-05   -0.00020014
-2.6099e-05   1.34537e-06   -0.000189311
-3.62394e-05   -5.92603e-06   -0.000126506
-2.11084e-05   4.34987e-07   -0.000158814
1.47103e-06   7.58432e-06   -0.000141963
-2.26368e-06   9.20129e-06   -0.000172022
8.24511e-05   6.6454e-06   0.000151999
7.975e-05   7.12633e-06   0.000166798
0.000103178   7.80614e-06   0.000150456
9.27038e-05   1.4084e-05   0.000149714
6.19912e-05   1.2321e-05   0.000167057
7.91399e-05   8.19191e-06   0.000183443
7.26218e-05   2.04129e-08   0.000162063
7.46227e-05   7.64517e-07   0.000176775
7.33957e-05   1.37533e-05   0.00014344
5.98106e-05   8.73164e-06   0.000165539
0.000176111   2.93837e-05   0.000115001
0.000132614   1.98716e-05   0.000112804
0.000174314   3.09709e-05   0.000128261
0.000190885   4.206e-05   9.39633e-05
0.000169621   2.22252e-05   0.000142134
0.000129844   1.24013e-05   0.000122396
0.000187519   4.28707e-05   7.27049e-05
0.000204016   4.0872e-05   0.000114222
0.000207927   4.10273e-05   0.00010793
5.41929e-05   -3.94734e-05   0.000178075
5.13847e-05   -8.88692e-06   0.000166818
5.43968e-05   -2.57023e-05   0.000186509
6.16769e-05   -2.42021e-05   0.000182174
4.8277e-05   -8.91374e-05   0.000179277
5.81733e-05   -7.95299e-05   0.000184721
4.63143e-05   -9.23374e-05   0.00018225
5.22366e-05   -7.46366e-05   0.000176093
4.9831e-05   -3.15834e-05   0.000147831
5.93214e-05   1.27833e-06   0.000162647
6.42992e-05   -4.48761e-05   0.000183674
7.06787e-05   -3.94872e-05   0.000189807
6.01351e-05   5.24986e-06   0.000211074
5.99632e-05   7.18243e-06   0.000210236
7.41528e-05   6.77461e-06   0.000207017
6.6591e-05   6.88801e-06   0.000200184
6.62605e-05   -2.02336e-05   0.000196067
5.76368e-05   -5.01821e-05   0.000177184
5.99553e-05   -3.59888e-05   0.000184016
2.18114e-05   3.51177e-05   2.33807e-05
4.59077e-05   4.06699e-05   1.53115e-05
8.69956e-07   2.44345e-05   5.58437e-05
4.68316e-06   3.90061e-05   -2.04941e-06
1.12417e-05   5.27386e-05   -4.05882e-05
-2.00549e-05   3.61808e-05   -8.15074e-06
3.55776e-05   5.97138e-05   -4.70498e-05
3.88821e-05   5.62779e-05   -4.76318e-05
5.37029e-05   5.24158e-05   -1.72796e-05
-0.000298588   -2.40348e-05   -8.32655e-05
-0.00012738   -6.41229e-05   -0.000342335
-0.000204832   -7.97988e-05   -8.50532e-05
-8.09967e-05   -0.000117937   -0.000200234
-4.39184e-05   -1.04026e-05   -0.00079984
3.96359e-06   -5.54782e-05   -0.000698978
4.78872e-05   -4.98147e-05   -0.000729549
-1.14038e-05   -6.85607e-05   -0.000401038
-9.51471e-05   -0.000112231   -0.000509447
-3.26033e-05   -4.98749e-05   -0.000545734
-0.000154931   -4.6919e-05   -0.000380289
-0.000274647   2.29181e-05   -0.000373788
-0.000284583   -7.34058e-06   -0.000218768
-0.000320785   5.82167e-05   -0.00037498
-0.000178587   -0.000128556   -0.000153733
-0.000366672   0.000173224   -0.000201792
-0.000109729   -0.000174514   -0.000119966
-0.000170092   -0.000152519   -1.98759e-05
-0.000149   -0.000205685   -0.000735523
-4.40443e-05   -0.000201444   -0.00051908
-0.000211439   -7.0273e-05   -3.46754e-05
-0.000782821   -0.000396302   -0.00124335
-0.000406903   -0.000248355   -0.000766529
-0.00023784   -0.000481231   -0.000698167
-0.000666097   -0.000267388   -0.00162782
6.36299e-05   -0.000680178   -0.000284619