# vtk DataFile Version 2.3
FEM Grid Data
ASCII
DATASET UNSTRUCTURED_GRID
POINTS 28959 float
-526185   -1.53048e+06   5.01694e+06
-50778.8   -1.37681e+06   4.41256e+06
-74015.3   -1.8988e+06   4.92592e+06
-149872   -2.16568e+06   4.23679e+06
-1.19938e+06   -1.78044e+06   5.31267e+06
-952779   -1.113e+06   5.08147e+06
-1.21683e+06   -1.80527e+06   4.82005e+06
-909908   -2.17288e+06   5.22337e+06
-794076   -1.80894e+06   5.37867e+06
-922229   -1.22497e+06   4.40823e+06
-478003   -1.0431e+06   5.16958e+06
-70857   -957782   4.97573e+06
-118895   -1.28308e+06   5.58323e+06
-574369   -1.15349e+06   5.58323e+06
-967492   -1.36162e+06   5.48114e+06
-400017   -1.6225e+06   5.48091e+06
-464739   -2.09257e+06   5.31395e+06
-53045.6   -2.17372e+06   -3.48351e+06
1.04495e+06   -1.99518e+06   -3.48061e+06
751766   -2.95117e+06   -3.97285e+06
832951   -2.30568e+06   -4.59536e+06
-201619   -2.95065e+06   -4.37616e+06
-223581   -2.81973e+06   -3.03469e+06
-846909   -2.43455e+06   -3.47e+06
80926   -2.23187e+06   -4.75467e+06
-626300   -2.01932e+06   -4.22319e+06
123098   -1.50647e+06   -3.94708e+06
-2.55128e+06   -474511   3.39756e+06
-2.19669e+06   -22015.4   4.08418e+06
-2.40174e+06   233207   3.19193e+06
-3.19623e+06   533982   3.44142e+06
-2.53701e+06   -1.26623e+06   4.46635e+06
-1.68532e+06   -1.12813e+06   3.74436e+06
-2.42625e+06   -496390   4.70757e+06
-2.1086e+06   -671392   2.71165e+06
-3.17683e+06   -597890   2.71408e+06
1.23189e+06   -1.7144e+06   4.90315e+06
1.28408e+06   -771360   4.49506e+06
2.03331e+06   -1.59108e+06   5.11537e+06
2.04555e+06   -1.51489e+06   4.53583e+06
-2.61201e+06   -1.29148e+06   2.77345e+06
-2.72404e+06   -1.29973e+06   3.6482e+06
1.78798e+06   2.85567e+06   947780
2.47323e+06   2.40025e+06   609872
1.93239e+06   2.917e+06   -83627
2.11813e+06   3.36987e+06   511166
-1.76858e+06   -418446   3.57109e+06
1.3732e+06   -1.63655e+06   -4.27257e+06
1.79692e+06   -1.79263e+06   -3.06863e+06
1.96893e+06   -2.54572e+06   -3.2912e+06
-221665   -304169   -5.10324e+06
-140904   -132090   -4.2766e+06
-586190   730934   -4.97612e+06
-933359   -322267   -3.98591e+06
-1.0692e+06   -1.3094e-10   -3.33269e+06
-1.22839e+06   776688   -3.18399e+06
-608949   386864   -3.99143e+06
-1.50448e+06   302157   -4.01461e+06
-1.27262e+06   1.27819e+06   -3.74991e+06
200837   655954   -4.57811e+06
-287216   1.09015e+06   -3.99691e+06
-2.14313e-10   -2.62458e-26   -3.5e+06
-1.4077e+06   -897017   5.48148e+06
-1.41089e+06   -1.38938e+06   5.37698e+06
-1.48434e+06   -1.23024e+06   4.93197e+06
-299905   -519957   4.60042e+06
-1.07676e+06   -561965   5.11693e+06
-654734   -422935   5.16787e+06
2.25682e+06   -3.06652e+06   -2.56776e+06
2.70411e+06   -2.18929e+06   -2.92881e+06
1.72247e+06   -2.45732e+06   -2.56198e+06
-952271   -868110   5.58323e+06
1.82344e+06   -4.23606e+06   -2.31095e+06
2.75324e+06   -3.7488e+06   -2.21891e+06
2.795e+06   -4.39498e+06   -2.38851e+06
2.31806e+06   -3.83873e+06   -2.86069e+06
2.8903e+06   -3.41878e+06   -1.19466e+06
3.52523e+06   -3.33825e+06   -1.95766e+06
3.15627e+06   -2.79679e+06   -2.27449e+06
3.16237e+06   -4.30649e+06   -2.07038e+06
2.57488e+06   -4.26272e+06   -1.57522e+06
2.05547e+06   -3.26627e+06   -1.78518e+06
-814525   -3.39665e+06   -3.80721e+06
-1.05971e+06   -2.78952e+06   -2.83681e+06
48671.5   -3.73937e+06   -3.76955e+06
391112   -3.19957e+06   -2.60542e+06
-1.38488e+06   2.79074e+06   2.64166e+06
-783563   2.02012e+06   3.33975e+06
-477065   2.65256e+06   3.73814e+06
-1.51043e+06   2.78638e+06   3.60959e+06
-1.37815e+06   2.13344e+06   2.40813e+06
-1.83762e+06   2.11771e+06   2.87022e+06
2.63198e+06   -2.3858e+06   -4.01003e+06
2.1722e+06   -3.28571e+06   -3.61733e+06
-1.37279e+06   2.4557e+06   4.38062e+06
-630265   1.77553e+06   4.35584e+06
-1.11156e+06   1.48321e+06   2.96893e+06
-1.42804e+06   1.13259e+06   3.7054e+06
-1.55992e+06   1.84661e+06   3.62682e+06
-70493.5   1.59129e+06   3.11654e+06
-533887   2.18592e+06   2.6808e+06
3.64041e+06   1.45774e+06   -1.10235e+06
3.59466e+06   1.74776e+06   13251
4.45119e+06   1.86704e+06   -498221
3.29533e+06   2.30193e+06   -685289
4.5782e+06   806132   -740449
3.67254e+06   510254   -1.60253e+06
4.15725e+06   954789   -2.22628e+06
4.13269e+06   2.13696e+06   -1.6139e+06
3.20077e+06   1.25176e+06   -2.30352e+06
3.07922e+06   2.39834e+06   -1.42858e+06
3.29434e+06   961057   -688266
4.81786e+06   1.77581e+06   -1.28705e+06
-2.02354e+06   3.26065e+06   875393
-3.23633e+06   3.56999e+06   436939
-2.38483e+06   3.93387e+06   743046
-2.34324e+06   3.41376e+06   40513.9
-2.52804e+06   3.62084e+06   1.91478e+06
-3.0923e+06   2.63763e+06   1.17313e+06
-2.3973e+06   2.27652e+06   1.14908e+06
-2.13638e+06   2.74234e+06   406754
-1.60215e+06   3.68284e+06   303810
-1.37195e+06   3.15667e+06   634958
-2.28667e+06   -2.49108e+06   -2.19331e+06
-2.46926e+06   -3.06405e+06   -1.50672e+06
-3.27023e+06   -2.62091e+06   -2.4517e+06
-2.88496e+06   -3.48625e+06   -2.66645e+06
-2.36901e+06   -1.30462e+06   -2.22166e+06
-2.36908e+06   -2.03293e+06   -1.58261e+06
-1.52726e+06   -2.49379e+06   -1.92315e+06
-1.80884e+06   -2.20403e+06   -2.83035e+06
-1.93798e+06   -3.64809e+06   -2.4648e+06
-1.79924e+06   -2.75831e+06   -1.18511e+06
2.59261e+06   3.92241e+06   -3.27505e+06
2.72372e+06   4.12847e+06   -2.89309e+06
2.27774e+06   3.87106e+06   -2.7563e+06
3.03122e+06   3.34306e+06   -2.62738e+06
3.02434e+06   4.12455e+06   -2.58348e+06
2.26627e+06   4.22936e+06   -2.23173e+06
2.178e+06   3.04421e+06   -2.39753e+06
2.57744e+06   4.40808e+06   -2.59972e+06
1.46849e+06   -3.38535e+06   -3.05432e+06
259847   3.56021e+06   2.30334e+06
-1.00243e+06   3.3375e+06   2.05004e+06
-909481   3.96478e+06   2.68821e+06
-239592   3.75332e+06   1.31839e+06
622268   2.87752e+06   3.13036e+06
390509   2.19639e+06   2.69692e+06
777275   2.68791e+06   2.10261e+06
1.2479e+06   -5.34932e+06   -1.63109e+06
1.77059e+06   -5.16361e+06   -1.74214e+06
1.39322e+06   -5.15803e+06   -2.0704e+06
1.49358e+06   -4.69021e+06   -1.70879e+06
317774   4.31436e+06   1.82868e+06
517073   4.61913e+06   2.58161e+06
1.21533e+06   3.80702e+06   2.44124e+06
1.23688e+06   2.89701e+06   2.46698e+06
678212   3.64627e+06   1.55034e+06
311961   3.07076e+06   1.65018e+06
-4.11639e+06   -13315.7   3.98598e+06
-4.36891e+06   187287   3.70276e+06
-4.11584e+06   476253   3.95802e+06
-3.58288e+06   -26192.3   3.89354e+06
-3.56608e+06   -721046   4.42675e+06
-2.97317e+06   -135076   4.33229e+06
-3.18985e+06   -558851   4.7271e+06
-3.42814e+06   -939489   3.89979e+06
-3.02996e+06   848559   4.25831e+06
-3.50579e+06   -177809   4.52888e+06
-3.41357e+06   272023   4.59417e+06
-4.13241e+06   154110   3.06637e+06
-3.81925e+06   816989   4.1927e+06
1.64812e+06   -4.39698e+06   -3.28378e+06
815346   -4.04821e+06   -2.9391e+06
-2.27089e+06   1.16043e+06   3.94514e+06
-1.76998e+06   38318.2   3.01922e+06
-1.72945e+06   379739   3.61726e+06
-1.5561e+06   -631825   4.86525e+06
-1.01683e+06   -127751   4.04263e+06
-2.20011e+06   -981089   5.19902e+06
-2.30024e+06   -469147   5.22702e+06
-1.69307e+06   -23129.9   4.77367e+06
1.75683e+06   -5.39709e+06   786009
1.97287e+06   -5.37007e+06   320915
1.28122e+06   -5.1519e+06   119510
2.24258e+06   -4.59852e+06   370713
1.99539e+06   1.93251e+06   2.12928e+06
2.49297e+06   2.87299e+06   2.56089e+06
1.47554e+06   2.69281e+06   3.11837e+06
2.16335e+06   1.87053e+06   3.05295e+06
889817   1.54465e+06   3.01202e+06
1.25537e+06   2.11629e+06   2.48905e+06
1.77159e+06   2.06497e+06   3.72543e+06
1.19431e+06   2.8097e+06   4.07048e+06
826950   1.96292e+06   3.59077e+06
-4.81132e+06   -2.77827e+06   -1.4019e+06
-4.74296e+06   -2.61558e+06   -1.86975e+06
-5.00707e+06   -2.31295e+06   -1.55318e+06
-4.74897e+06   -2.04241e+06   -1.2109e+06
-2.98994e+06   1.66862e+06   -725259
-3.73485e+06   1.32014e+06   -1.70535e+06
-4.03844e+06   2.03903e+06   -969969
-3.26316e+06   2.05982e+06   -1.42834e+06
-5.08179e+06   2.47565e+06   -937769
-4.97657e+06   2.47122e+06   -1.3999e+06
-4.2463e+06   2.7718e+06   -851029
-4.68664e+06   2.00645e+06   -488483
-3.46269e+06   2.11504e+06   124817
-3.49831e+06   2.97001e+06   -849445
-4.13106e+06   2.55765e+06   -1.76472e+06
-2.91016e+06   4.36985e+06   -74863.9
3.13745e+06   1.09067e+06   4.66902e+06
3.31192e+06   1.53684e+06   4.41613e+06
3.45754e+06   953528   3.77818e+06
2.82303e+06   1.39052e+06   3.49793e+06
3.93707e+06   652479   4.11177e+06
4.207e+06   1.14816e+06   3.71696e+06
3.66872e+06   197613   3.40909e+06
3.63258e+06   239777   4.42491e+06
3.03888e+06   191277   4.31468e+06
3.53005e+06   898201   4.42322e+06
3.4491e+06   2.03177e+06   4.09982e+06
3.75592e+06   1.36331e+06   4.10698e+06
1.38138e+06   -780715   -3.11966e+06
2.15255e+06   -833585   -2.6309e+06
2.40788e+06   -1.53495e+06   -3.81101e+06
1.24499e+06   -2.03951e+06   -2.55742e+06
1.99258e+06   -1.73374e+06   -2.29647e+06
888225   -1.50778e+06   -3.03112e+06
1.69894e+06   -2.61714e+06   -4.03694e+06
984552   873869   -3.85483e+06
716878   1.23844e+06   -5.05147e+06
313559   1.5389e+06   -3.89725e+06
1.68105e+06   871392   -4.95356e+06
1.00023e+06   410340   -4.9392e+06
1.0692e+06   -4.74822e-10   -3.33269e+06
1.34708e+06   798059   -3.13025e+06
2.07158e+06   604245   -3.37305e+06
534602   925958   -3.33269e+06
936509   123937   -4.05213e+06
2.07777e+06   413630   -4.35966e+06
1.65875e+06   1.45318e+06   -4.25741e+06
-4.2536e+06   -3.43145e+06   -1.72189e+06
-4.00818e+06   -3.53934e+06   -2.05924e+06
-4.2207e+06   -3.23034e+06   -2.14091e+06
-3.60071e+06   -3.52863e+06   -1.81333e+06
-4.09698e+06   -3.06318e+06   -1.54915e+06
-4.07517e+06   -2.40864e+06   -2.4077e+06
-4.00059e+06   -2.03894e+06   -1.64526e+06
-4.45777e+06   -2.85389e+06   -2.19466e+06
-3.48152e+06   -3.20057e+06   -1.1461e+06
-4.41616e+06   -2.73063e+06   -1.01114e+06
-3.18722e+06   -2.34869e+06   -996539
-4.52525e+06   -3.2705e+06   -1.28796e+06
-4.52267e+06   -3.04213e+06   -1.76742e+06
245445   -3.57225e+06   2.88188e+06
795164   -4.01675e+06   1.72564e+06
1.24301e+06   -4.5689e+06   2.20009e+06
[...]
POINT_DATA 28959
VECTORS displacement float
-0.000265189   0.00069016   -9.6194e-05
-0.000319631   0.000107385   -0.000428448
-0.000352121   0.000714607   0.000164812
-0.000301775   0.00020413   4.05395e-05
-0.000139472   0.000504822   -8.25177e-05
-0.000358433   0.000273325   -0.00046865
-0.000266307   0.000197207   -0.000215536
-0.000163436   0.000673186   8.7948e-05
-0.000117346   0.000893417   6.86727e-05
-0.000367624   -4.71586e-05   -0.000593644
-0.000276368   0.000723601   -0.000380451
-0.00043764   0.000544887   -0.000622827
-0.000201665   0.00232819   0.000407966
7.43963e-05   0.00151464   5.62384e-05
-6.49841e-05   0.000818901   -0.000210123
-0.000157977   0.00154887   0.000135782
-0.000191876   0.00105417   0.000254209
5.8611e-05   8.36337e-06   3.06898e-05
5.81971e-05   -6.19899e-06   8.53318e-05
6.89174e-05   7.03187e-07   6.59713e-05
0.000105916   7.81913e-06   7.12445e-05
9.50367e-05   1.78874e-05   1.6786e-05
2.85662e-05   3.26064e-06   2.05122e-05
5.56738e-05   1.5296e-05   -1.61919e-05
0.000119401   2.08541e-05   3.47742e-05
0.000100565   2.55651e-05   9.87061e-07
9.082e-05   1.40545e-05   4.51537e-05
-0.000427259   -9.54612e-05   -0.000500119
-0.00047284   -9.40294e-05   -0.000655977
-0.000413719   -3.50768e-05   -0.000498123
-0.000381058   -1.83761e-05   -0.00036484
-0.000433787   -9.91033e-05   -0.000423342
-0.000399594   -0.000124692   -0.000542865
-0.000510858   -9.48174e-05   -0.000615962
-0.000432151   -0.000134622   -0.000507126
-0.000395348   -6.72265e-05   -0.000363241
-0.0005658   0.000421723   6.7508e-05
-0.000190256   2.26404e-05   -0.000579015
-0.000582162   0.000263681   8.71299e-05
-0.000356531   4.45486e-05   -4.13207e-05
-0.000388376   -0.000120929   -0.0003436
-0.000406169   -0.000101562   -0.000384477
7.34963e-06   3.58225e-05   0.000133578
3.41073e-05   2.40837e-05   0.000123668
3.56397e-05   1.72951e-05   0.000159536
1.86032e-05   2.39131e-05   0.000165941
-0.000449272   -0.000112861   -0.000726983
9.72155e-05   -1.81318e-06   9.91157e-05
4.39335e-05   -2.15514e-05   0.000115635
3.93823e-05   -2.47439e-05   0.000118117
0.000165108   3.84646e-05   3.96212e-05
0.000128801   2.78763e-05   4.63756e-05
0.000176995   4.77014e-05   3.68141e-05
0.00011526   3.51411e-05   5.03191e-06
8.70924e-05   2.89674e-05   1.64671e-06
9.43459e-05   3.35771e-05   6.0244e-06
0.000125861   3.38308e-05   3.13444e-05
0.000129563   4.75492e-05   -1.63609e-05
0.000132048   4.47667e-05   1.29858e-05
0.000152631   2.98803e-05   7.17788e-05
0.000136423   3.22894e-05   5.74487e-05
9.56374e-05   1.72268e-05   5.44923e-05
-0.000439465   3.74687e-05   -0.000686879
-0.000239747   0.000253172   -0.00034016
-0.000379818   -5.43548e-06   -0.000508723
-0.000502309   -0.000280452   -0.00173889
-0.000658431   -0.0001564   -0.00116948
-0.000722119   -0.000306682   -0.0016795
-2.47874e-07   -3.99554e-05   0.000127706
2.96087e-05   -4.11674e-05   0.000141015
1.16975e-05   -2.84419e-05   0.000111858
-0.000155944   0.00051374   -0.000515381
-2.90219e-05   -3.6927e-05   0.000112248
-2.81961e-05   -5.63084e-05   0.000142298
-3.41665e-05   -5.66855e-05   0.000142182
-2.50223e-06   -3.95381e-05   0.000127259
-5.76421e-05   -7.35225e-05   0.000147779
-3.07093e-05   -7.67739e-05   0.000160325
-6.39323e-06   -6.18076e-05   0.000151422
-4.70084e-05   -6.91978e-05   0.000152883
-6.28934e-05   -6.16888e-05   0.000139548
-3.34237e-05   -4.67473e-05   0.000123944
6.64302e-05   1.69656e-05   -1.76079e-05
2.15729e-05   7.19347e-06   -2.48753e-05
5.54741e-05   5.91655e-06   2.84257e-05
3.0252e-06   -8.90847e-06   5.37997e-05
-0.000149624   1.083e-05   3.88475e-05
-0.000191332   -3.45415e-05   -0.000124777
-0.000141449   -0.000190199   0.000111569
-0.000142143   -0.000151165   9.51428e-05
-0.000175518   7.47149e-05   -9.99814e-05
-0.000213386   1.69409e-05   -0.000108819
6.69244e-05   -3.01547e-05   0.000138207
3.81235e-05   -2.7882e-05   0.00012224
-9.15301e-05   -0.000351258   0.000107019
-0.000142807   -0.000296495   -0.000171888
-0.000278835   9.30104e-05   -0.000397917
-0.000303541   -2.8175e-05   -0.000572947
-0.000220812   -6.74284e-05   -0.000197378
-0.00019269   0.0001148   -0.00045677
-0.000156373   7.33619e-05   -7.7568e-05
6.06001e-05   -3.0543e-05   0.000156722
5.21842e-05   -1.88233e-05   0.000136794
5.84093e-05   -3.69978e-05   0.000161511
5.9107e-05   -9.60233e-06   0.000158326
4.85466e-05   -6.15739e-05   0.000157606
5.40612e-05   -4.48116e-05   0.000156791
7.18355e-05   -4.54783e-05   0.000173444
7.37547e-05   -3.02516e-05   0.000176441
7.76534e-05   -2.54537e-05   0.000163003
7.05624e-05   -1.13041e-05   0.000167044
4.95181e-05   -3.1059e-05   0.0001402
6.61692e-05   -4.80392e-05   0.000176513
-4.47181e-05   2.0446e-05   2.54364e-05
-2.32389e-05   4.51205e-05   -4.75268e-05
-2.61054e-05   2.40579e-05   3.07434e-05
3.3064e-06   2.38616e-05   1.15782e-05
-9.56827e-05   1.84374e-05   2.71813e-05
-0.000111082   4.96446e-05   -8.72583e-05
-0.000120422   4.02307e-05   -6.02071e-05
0   0   0
-7.8908e-06   2.35071e-05   6.91148e-05
-2.71745e-05   2.55582e-05   6.99587e-05
-9.39773e-06   1.04862e-05   -0.000100855
-5.23211e-05   -6.12393e-06   -0.00011863
7.28262e-06   2.62058e-05   -0.000171935
1.53126e-05   2.04631e-05   -0.000149866
8.20389e-07   2.00441e-05   -9.40912e-05
-4.67213e-05   3.23688e-07   -0.000103662
-2.58729e-05   -2.67245e-06   -4.8253e-05
2.73867e-05   1.82709e-05   -6.69636e-05
1.28754e-06   8.2574e-06   -8.43148e-05
-7.00607e-05   -1.69823e-05   -6.71585e-05
0.000127156   3.68976e-06   0.000188316
0.000115033   1.70634e-06   0.000192747
0.000111133   3.86643e-06   0.000182104
0.000102494   -6.35462e-06   0.000186615
0.000104044   -2.20347e-06   0.000196766
9.56311e-05   4.53912e-06   0.000187071
9.55497e-05   3.72944e-07   0.00016854
0.000107322   3.15783e-06   0.000194124
1.72857e-05   -2.04585e-05   9.85827e-05
-8.5465e-05   -5.62165e-06   0.000181385
-9.77466e-05   1.66116e-05   0.000111469
-0.000105601   -6.26708e-05   0.000198877
-4.82196e-05   2.51772e-05   0.000151166
-0.000124299   -3.08945e-05   0.000112682
-0.000104172   0.000115282   -0.000101176
-5.70121e-05   6.33843e-05   5.14897e-05
-6.89955e-05   -3.62242e-05   9.07127e-05
-6.65096e-05   -4.40176e-05   0.000111194
-4.87151e-05   -3.36317e-05   9.40745e-05
-5.91119e-05   -3.88363e-05   0.000102772
-6.26889e-05   -5.5316e-06   0.000206387
-9.50625e-05   -7.1669e-05   0.00026292
-8.13601e-05   -1.47652e-05   0.00020892
-6.25529e-05   2.82825e-05   9.68901e-05
-4.52907e-05   2.57404e-05   0.000170457
-5.79264e-05   3.89358e-05   0.00011873
-0.000404655   -3.09258e-05   -0.000364078
-0.00038553   -1.60907e-05   -0.000338987
-0.000375346   -2.00795e-05   -0.000333027
-0.000420254   -3.87592e-05   -0.000391031
-0.000437629   -6.52419e-05   -0.000390572
-0.000458962   -7.71328e-05   -0.000499044
-0.000459506   -7.25561e-05   -0.000443454
-0.000419969   -7.09027e-05   -0.000374776
-0.000353626   -5.69079e-05   -0.000354693
-0.000429518   -5.9745e-05   -0.000410961
-0.000402091   -6.1525e-05   -0.000395351
-0.000370997   -1.25705e-05   -0.000331333
-0.000350898   -3.5036e-05   -0.000316831
1.20285e-05   -2.41553e-05   0.000100191
7.40764e-06   -1.26999e-05   6.87998e-05
-0.000314192   -6.14042e-05   -0.000360684
-0.000483921   -6.46678e-05   -0.000704789
-0.000415328   -5.72091e-05   -0.000737875
-0.000556969   -0.000142758   -0.000894231
-0.000501027   -0.000118426   -0.00124362
-0.000457393   -6.77335e-05   -0.00057324
-0.000531922   -0.000116598   -0.000673611
-0.000591547   -0.000140732   -0.000961189
-0.000177681   -6.68676e-05   0.0001482
-0.000158482   -6.93582e-05   0.000144605
-0.000143129   -5.75772e-05   0.000116371
-0.00014535   -8.12788e-05   0.000152107
1.93976e-05   6.47984e-05   -3.64929e-05
-3.36547e-05   8.69923e-06   0.000121212
-8.98552e-05   -1.23096e-05   7.79961e-05
-2.40787e-05   1.11312e-05   -6.31657e-05
-5.31497e-05   0.000114827   -0.000374463
-2.9992e-05   8.49039e-05   -0.000106904
-0.000101166   -5.26368e-05   -7.16952e-05
-0.000194054   -0.000240029   0.0001643
-0.000107469   -3.72498e-05   -0.000190022
-6.3744e-05   2.00057e-05   -0.000301216
-3.03441e-05   3.14375e-05   -0.000290125
-5.25772e-05   3.23506e-05   -0.000311939
-7.67637e-05   2.44184e-05   -0.000292588
-3.17913e-05   4.01495e-05   -9.22618e-05
2.11605e-05   6.40562e-05   -0.000148062
-5.21624e-06   7.09835e-05   -0.000156449
2.7138e-05   5.72641e-05   -9.54616e-05
7.72868e-06   0.00010299   -0.000220354
3.71052e-05   0.000103935   -0.000208901
1.53961e-05   8.10305e-05   -0.000147281
-4.07595e-05   8.43475e-05   -0.000210338
-7.17135e-05   5.33979e-05   -0.000124282
2.63137e-05   6.1624e-05   -8.52471e-05
6.22764e-05   8.54589e-05   -0.000140864
2.64815e-05   3.88796e-05   2.06058e-06
-9.48326e-05   -9.86149e-05   -0.00012368
-0.000100429   -8.87027e-05   -2.58647e-05
-2.57987e-05   -6.75952e-05   -4.9756e-05
-1.70564e-05   -3.1794e-05   -9.44253e-05
-6.05782e-05   -9.60759e-05   -1.23229e-05
-3.37235e-05   -8.45127e-05   4.61227e-05
-1.75949e-05   -9.55555e-05   -3.73034e-05
-8.83969e-05   -0.000104198   -7.484e-05
-5.87426e-05   -9.79231e-05   -0.000193904
-7.93654e-05   -9.25635e-05   -5.90866e-05
-9.48326e-05   -8.18652e-05   4.80224e-05
-6.48985e-05   -8.31381e-05   1.27618e-05
6.65474e-05   -9.18189e-06   0.00010503
5.00224e-05   -2.60806e-05   0.000127914
7.51882e-05   -2.40386e-05   0.0001351
1.83913e-05   -2.00742e-05   9.43001e-05
2.01963e-05   -3.31833e-05   0.000121848
4.82475e-05   -7.04442e-06   8.05886e-05
7.01032e-05   -1.29595e-05   0.000106915
0.000122405   1.16881e-05   0.000106747
0.000177029   2.97672e-05   9.96535e-05
0.000136852   2.47994e-05   8.97362e-05
0.000161173   1.21263e-05   0.000129145
0.000159107   2.03633e-05   0.000100875
8.95636e-05   1.37118e-06   9.93321e-05
9.5394e-05   9.96651e-07   0.000117569
9.821e-05   -8.77288e-06   0.000138753
0.000104374   1.31842e-05   8.96968e-05
0.000118531   1.06694e-05   9.5914e-05
0.000129464   -2.19611e-06   0.000137838
0.00014194   8.40893e-06   0.00013565
-4.03429e-05   1.37392e-05   -0.000257977
-1.90889e-05   1.80373e-05   -0.000237378
-1.34922e-05   2.47806e-05   -0.000251243
-3.46334e-05   8.42453e-06   -0.000206802
-5.17675e-05   1.14474e-05   -0.000244095
5.58397e-06   3.69857e-05   -0.000232055
-4.45979e-05   2.25339e-05   -0.000229272
-8.85071e-06   3.24998e-05   -0.000266579
-7.73155e-05   -7.02417e-06   -0.000199074
-9.1449e-05   4.96187e-06   -0.000272809
-8.86084e-05   -6.73628e-06   -0.000174119
-6.97221e-05   7.60665e-06   -0.000282354
-3.73101e-05   2.18602e-05   -0.000276433
-0.000244365   -4.36794e-05   0.000137179
-0.000197012   -7.73236e-05   0.000129103
-0.00023183   -5.06401e-05   0.000183693
-0.000256227   -1.86755e-05   0.000158221
-0.000264987   -1.08356e-05   0.000202033
-0.000251143   -2.20042e-05   0.000169287
-0.000298296   5.55248e-05   0.000226634
-0.000274064   7.81841e-06   0.000193394
-0.000283238   1.43932e-05   0.0002221
-0.00025863   -1.03006e-05   0.000155491
-0.00021889   -4.7562e-05   0.000116865
1.29733e-05   4.84903e-05   -0.000154165
-5.5615e-05   4.58146e-05   -0.000194563
2.42412e-05   7.2967e-05   -0.000209635
-3.5897e-05   5.81878e-05   -0.000256212
-3.99165e-05   2.85986e-05   -0.000144997
-4.17391e-05   -7.11787e-05   0.000134207
-1.98678e-05   -7.29139e-05   0.000149638
-5.61931e-05   -0.000103238   0.000150553
-3.41763e-05   3.82439e-05   -0.000129709
4.2709e-05   3.74761e-05   -7.73576e-05
6.22044e-06   3.08837e-05   -0.000110124
6.65962e-05   5.825e-05   -0.000151627
8.02532e-06   3.92874e-05   -0.000182579
1.43668e-05   6.09093e-05   -0.000225552
0.000112947   -3.52531e-05   0.000185462
0.000106867   -2.86771e-05   0.000179963
0.000114894   -2.55241e-05   0.000171117
8.73835e-05   -3.38504e-05   0.00017076
-3.89479e-05   -3.49598e-05   9.05604e-05
-6.67392e-05   -4.92749e-05   0.000106484
-4.8909e-05   -3.19748e-05   8.84364e-05
0.000124256   -2.72369e-05   0.000180925
0.000134913   -1.8471e-05   0.000179017
-8.96763e-05   2.06814e-05   -0.000324601
-7.08168e-05   3.63369e-05   -0.000329161
0.000145102   -1.1626e-05   0.000165942
0.000122954   -1.6634e-05   0.000156072
0.000122196   -8.24548e-06   0.000157664
0.000135335   -1.93294e-05   0.000174134
0.000131194   -2.17703e-05   0.00016894
0.000146017   -1.06386e-05   0.000171318
3.34353e-05   1.07135e-05   0.000152901
5.28181e-05   1.53325e-05   0.000149233
3.02352e-05   7.45897e-06   0.00017205
1.20135e-05   1.01268e-05   0.000153593
5.82372e-05   2.03139e-05   0.000121355
7.46336e-05   2.66307e-05   9.66476e-05
7.71421e-05   1.76424e-05   0.000147519
4.81711e-05   1.98242e-05   0.000119498
6.46165e-05   1.51568e-05   0.000157668
8.31007e-05   2.00737e-05   0.000142384
5.21966e-05   1.58706e-05   0.00013709
6.71754e-05   1.82607e-05   0.000141228
6.49903e-05   1.28846e-05   0.000171635
4.53857e-05   9.97104e-06   0.000175608
3.56547e-05   1.35625e-05   0.00016431
-0.000711225   -0.000365567   -0.00395384
3.31537e-06   -4.73529e-06   -0.00198055
-0.000351467   -8.40353e-06   -0.00152993
-0.000224853   -4.85984e-05   -0.00100761
0.000433844   1.90912e-05   -0.00403973
6.69309e-05   -4.68664e-05   -0.00113878
-3.38595e-05   -0.000126338   -0.000919222
0.000249592   -4.33515e-05   -0.00162273
-0.000242101   -6.36991e-05   -0.00134361
-0.000107051   -2.23231e-05   -0.000955591
-1.1962e-05   -5.0884e-05   -0.00124695
-0.000139539   -9.20062e-05   -0.00116661
0.000187384   -0.000109962   -0.00172728
-1.5665e-05   -2.57337e-05   9.32872e-05
-7.53146e-06   -1.93193e-05   7.41635e-05
-3.64025e-05   -1.96387e-05   4.44169e-05
-2.04805e-05   -1.12714e-05   3.46342e-05
-0.000215958   -5.47227e-05   -0.000249184
-0.000199382   -3.11257e-05   -0.000298138
-0.000134813   -1.67789e-05   -0.000252225
-0.000161407   -3.08142e-05   -0.000269469
-0.000241597   -5.05636e-05   -0.00031061
-0.000272455   -5.71916e-05   -0.000291907
-0.000249474   -6.86475e-05   -0.000255816
-0.000263331   -6.27653e-05   -0.000290005
-0.000267686   -8.24001e-05   -0.000222353
4.41277e-05   1.63815e-05   0.000147434
1.81714e-05   1.31342e-05   0.000189775
-9.19032e-06   2.03656e-05   0.0001627
-0.000226553   -3.12515e-05   -0.00028213
-0.000192337   -4.96865e-05   -0.00020931
1.81698e-06   -1.23753e-05   -0.000696878
5.73943e-05   7.91428e-06   0.000201675
7.06864e-05   1.00782e-05   0.000191826
7.2868e-05   7.86533e-06   0.000198484
4.84694e-05   9.95284e-06   0.000186829
2.02747e-05   -0.000114403   -0.000943352
8.86199e-05   2.65714e-05   -0.000633022
-4.62704e-05   9.57431e-05   -0.000919233
-0.000109716   -4.11783e-05   8.44189e-05
-8.94394e-05   -3.95269e-05   8.71606e-05
-9.04041e-05   -3.32822e-05   6.19723e-05
-9.36476e-05   -3.75757e-05   7.6187e-05
7.04666e-05   1.7709e-05   1.68567e-05
7.43264e-05   2.93322e-05   -3.64956e-05
0.000108837   2.62361e-05   2.41707e-05
0.000132728   4.85969e-05   -5.02411e-05
9.88987e-05   4.41759e-05   -4.95524e-05
0.000167534   6.17302e-05   -3.62997e-05
0.00015799   4.67437e-05   -3.73799e-06
0.000181835   5.84848e-05   1.62872e-05
5.0558e-05   6.47644e-05   -0.000258101
5.4455e-05   5.77714e-05   -0.000241132
7.40045e-05   6.76908e-05   -0.000235261
4.61751e-05   6.12537e-05   -0.000224982
7.59106e-05   4.87938e-05   -0.000182983
8.88186e-05   5.78297e-05   -0.00019089
4.93638e-05   4.96969e-05   -0.000202598
5.52862e-05   4.30899e-05   -0.000149378
3.37237e-05   5.6958e-05   -0.000264359
7.15967e-05   -2.75113e-05   0.000190517
8.31861e-05   -1.70866e-05   0.000186917
6.56526e-05   -8.4027e-06   0.000185539
-2.36207e-06   4.75066e-05   -0.000260181
3.86012e-05   4.58677e-05   -0.00023498
-0.000157291   -1.58446e-05   -0.000317568
-0.000155823   -5.18438e-06   -0.000332027
-0.000209374   -4.42615e-05   -0.000299482
-0.000248086   -3.8096e-05   -0.000335163
-0.000131957   -3.5135e-05   -0.000184478
-0.000183557   -3.0176e-05   -0.000311306
-0.000197967   -9.70629e-05   0.000103318
-0.000251663   -5.39839e-05   0.00020804
-0.000214408   -9.55583e-05   0.00018846
-0.000274298   -3.71506e-05   0.000180758
4.756e-05   1.00393e-05   0.000185899
-0.000136412   -0.000138222   0.000100642
-9.10063e-05   -0.000146566   -5.85847e-05
-0.000276712   -3.49255e-05   0.000121127
-0.000181173   -0.000104758   0.000133349
-0.000327394   9.44086e-05   0.000239974
-0.000296551   1.14828e-05   8.23766e-05
-0.000231563   -7.2525e-05   0.000102361
8.31064e-05   1.56955e-05   0.000166891
0.000100037   1.76034e-05   0.000163783
8.51067e-05   1.31605e-05   0.000179111
7.52344e-05   1.44591e-05   0.00015811
8.60894e-05   1.05659e-05   0.000188939
9.17234e-05   1.21467e-05   0.00017571
-7.31866e-05   -1.48682e-05   -0.000184642
-4.75212e-05   -6.00049e-06   -0.000168529
-3.86149e-05   -2.29183e-08   -0.000161165
-8.17025e-05   -1.95481e-05   -0.000135443
-5.30248e-05   -4.93232e-06   -0.000198757
-3.3392e-05   5.22316e-06   -0.000209288
-9.94898e-06   1.2437e-05   -0.000191707
-2.84004e-05   3.02916e-06   -0.000181294
-3.78663e-05   -4.364e-06   -0.000121424
-2.35413e-05   1.99708e-06   -0.000152202
-1.60462e-06   8.82355e-06   -0.000136177
-5.29642e-06   1.05058e-05   -0.000164888
8.02006e-05   6.55292e-06   0.000146962
7.77801e-05   6.85965e-06   0.000161293
0.000100104   7.91499e-06   0.000145657
8.998e-05   1.39172e-05   0.000144828
6.06128e-05   1.15808e-05   0.000161333
7.74849e-05   7.77417e-06   0.000177796
7.09651e-05   -1.75903e-07   0.000156701
7.30894e-05   4.63185e-07   0.000171121
7.12397e-05   1.34142e-05   0.000138469
5.85265e-05   7.90245e-06   0.000159692
0.000169751   2.89448e-05   0.000111772
0.000127901   1.98072e-05   0.000109527
0.000168294   3.04713e-05   0.00012452
0.00018382   4.12204e-05   9.15279e-05
0.000163869   2.19491e-05   0.000137909
0.000125306   1.25254e-05   0.000118814
0.000180292   4.20662e-05   7.11276e-05
0.000196672   3.9973e-05   0.000111018
0.000200272   4.01368e-05   0.000104974
5.33208e-05   -3.89481e-05   0.000174397
5.07091e-05   -9.69968e-06   0.000162045
5.35342e-05   -2.58236e-05   0.000182545
6.07756e-05   -2.41863e-05   0.00017769
4.78318e-05   -8.60881e-05   0.00017518
5.74242e-05   -7.6825e-05   0.000180256
4.59345e-05   -8.9068e-05   0.000177848
5.16304e-05   -7.21372e-05   0.000171444
4.91891e-05   -3.14239e-05   0.000143872
5.82224e-05   5.27923e-07   0.000157203
6.3306e-05   -4.39086e-05   0.000179771
6.9598e-05   -3.86546e-05   0.00018553
5.96234e-05   4.27366e-06   0.000205994
5.94257e-05   6.21691e-06   0.000205011
7.31556e-05   6.02123e-06   0.000201854
6.56544e-05   6.09731e-06   0.000194669
6.54024e-05   -2.03167e-05   0.000191692
5.67305e-05   -4.90823e-05   0.000173564
5.90423e-05   -3.54701e-05   0.000180193
2.14308e-05   3.43146e-05   2.48728e-05
4.43124e-05   4.00352e-05   1.69766e-05
1.18711e-06   2.35746e-05   5.50348e-05
4.69383e-06   3.80194e-05   5.02898e-07
1.03406e-05   5.13623e-05   -3.66854e-05
-1.94804e-05   3.51358e-05   -6.31616e-06
3.35762e-05   5.82783e-05   -4.29901e-05
3.64299e-05   5.51422e-05   -4.4355e-05
5.12463e-05   5.1415e-05   -1.45551e-05
-0.000286319   -2.84128e-05   -7.49572e-05
-0.000115652   -6.74714e-05   -0.000324924
-0.00019367   -8.12301e-05   -7.73707e-05
-7.29985e-05   -0.00011671   -0.00018997
-2.18852e-05   -2.02796e-05   -0.00079932
1.28582e-05   -6.07761e-05   -0.000684103
5.95983e-05   -4.26143e-05   -0.000726105
-1.73902e-06   -6.22637e-05   -0.000389261
-8.34528e-05   -0.000119955   -0.000499036
-3.07779e-05   -5.20903e-05   -0.000532115
-0.000149579   -4.84909e-05   -0.000358843
-0.000277221   1.60785e-05   -0.000348749
-0.000276674   -1.15024e-05   -0.000200666
-0.000311264   4.57775e-05   -0.000358352
-0.000168695   -0.00013077   -0.000146513
-0.000354986   0.00015815   -0.000173459
-0.000101611   -0.00017187   -0.000114973
-0.000160811   -0.000148182   -2.26333e-05
-0.00012922   -0.000214644   -0.000743202
-2.97704e-05   -0.000205201   -0.000515467
-0.000201722   -7.17103e-05   -2.90546e-05
-0.000754506   -0.000410131   -0.00122718
-0.000396452   -0.000220476   -0.000735607
-0.00022654   -0.000459883   -0.000661688
-0.000688761   -0.000232305   -0.00173918