# vtk DataFile Version 2.3
FEM Grid Data
ASCII
DATASET UNSTRUCTURED_GRID
POINTS 28959 float
-526185   -1.53048e+06   5.01694e+06
-50778.8   -1.37681e+06   4.41256e+06
-74015.3   -1.8988e+06   4.92592e+06
-149872   -2.16568e+06   4.23679e+06
-1.19938e+06   -1.78044e+06   5.31267e+06
-952779   -1.113e+06   5.08147e+06
-1.21683e+06   -1.80527e+06   4.82005e+06
-909908   -2.17288e+06   5.22337e+06
-794076   -1.80894e+06   5.37867e+06
-922229   -1.22497e+06   4.40823e+06
-478003   -1.0431e+06   5.16958e+06
-70857   -957782   4.97573e+06
-118895   -1.28308e+06   5.58323e+06
-574369   -1.15349e+06   5.58323e+06
-967492   -1.36162e+06   5.48114e+06
-400017   -1.6225e+06   5.48091e+06
-464739   -2.09257e+06   5.31395e+06
-53045.6   -2.17372e+06   -3.48351e+06
1.04495e+06   -1.99518e+06   -3.48061e+06
751766   -2.95117e+06   -3.97285e+06
832951   -2.30568e+06   -4.59536e+06
-201619   -2.95065e+06   -4.37616e+06
-223581   -2.81973e+06   -3.03469e+06
-846909   -2.43455e+06   -3.47e+06
80926   -2.23187e+06   -4.75467e+06
-626300   -2.01932e+06   -4.22319e+06
123098   -1.50647e+06   -3.94708e+06
-2.55128e+06   -474511   3.39756e+06
-2.19669e+06   -22015.4   4.08418e+06
-2.40174e+06   233207   3.19193e+06
-3.19623e+06   533982   3.44142e+06
-2.53701e+06   -1.26623e+06   4.46635e+06
-1.68532e+06   -1.12813e+06   3.74436e+06
-2.42625e+06   -496390   4.70757e+06
-2.1086e+06   -671392   2.71165e+06
-3.17683e+06   -597890   2.71408e+06
1.23189e+06   -1.7144e+06   4.90315e+06
1.28408e+06   -771360   4.49506e+06
2.03331e+06   -1.59108e+06   5.11537e+06
2.04555e+06   -1.51489e+06   4.53583e+06
-2.61201e+06   -1.29148e+06   2.77345e+06
-2.72404e+06   -1.29973e+06   3.6482e+06
1.78798e+06   2.85567e+06   947780
2.47323e+06   2.40025e+06   609872
1.93239e+06   2.917e+06   -83627
2.11813e+06   3.36987e+06   511166
-1.76858e+06   -418446   3.57109e+06
1.3732e+06   -1.63655e+06   -4.27257e+06
1.79692e+06   -1.79263e+06   -3.06863e+06
1.96893e+06   -2.54572e+06   -3.2912e+06
-221665   -304169   -5.10324e+06
-140904   -132090   -4.2766e+06
-586190   730934   -4.97612e+06
-933359   -322267   -3.98591e+06
-1.0692e+06   -1.3094e-10   -3.33269e+06
-1.22839e+06   776688   -3.18399e+06
-608949   386864   -3.99143e+06
-1.50448e+06   302157   -4.01461e+06
-1.27262e+06   1.27819e+06   -3.74991e+06
200837   655954   -4.57811e+06
-287216   1.09015e+06   -3.99691e+06
-2.14313e-10   -2.62458e-26   -3.5e+06
-1.4077e+06   -897017   5.48148e+06
-1.41089e+06   -1.38938e+06   5.37698e+06
-1.48434e+06   -1.23024e+06   4.93197e+06
-299905   -519957   4.60042e+06
-1.07676e+06   -561965   5.11693e+06
-654734   -422935   5.16787e+06
2.25682e+06   -3.06652e+06   -2.56776e+06
2.70411e+06   -2.18929e+06   -2.92881e+06
1.72247e+06   -2.45732e+06   -2.56198e+06
-952271   -868110   5.58323e+06
1.82344e+06   -4.23606e+06   -2.31095e+06
2.75324e+06   -3.7488e+06   -2.21891e+06
2.795e+06   -4.39498e+06   -2.38851e+06
2.31806e+06   -3.83873e+06   -2.86069e+06
2.8903e+06   -3.41878e+06   -1.19466e+06
3.52523e+06   -3.33825e+06   -1.95766e+06
3.15627e+06   -2.79679e+06   -2.27449e+06
3.16237e+06   -4.30649e+06   -2.07038e+06
2.57488e+06   -4.26272e+06   -1.57522e+06
2.05547e+06   -3.26627e+06   -1.78518e+06
-814525   -3.39665e+06   -3.80721e+06
-1.05971e+06   -2.78952e+06   -2.83681e+06
48671.5   -3.73937e+06   -3.76955e+06
391112   -3.19957e+06   -2.60542e+06
-1.38488e+06   2.79074e+06   2.64166e+06
-783563   2.02012e+06   3.33975e+06
-477065   2.65256e+06   3.73814e+06
-1.51043e+06   2.78638e+06   3.60959e+06
-1.37815e+06   2.13344e+06   2.40813e+06
-1.83762e+06   2.11771e+06   2.87022e+06
2.63198e+06   -2.3858e+06   -4.01003e+06
2.1722e+06   -3.28571e+06   -3.61733e+06
-1.37279e+06   2.4557e+06   4.38062e+06
-630265   1.77553e+06   4.35584e+06
-1.11156e+06   1.48321e+06   2.96893e+06
-1.42804e+06   1.13259e+06   3.7054e+06
-1.55992e+06   1.84661e+06   3.62682e+06
-70493.5   1.59129e+06   3.11654e+06
-533887   2.18592e+06   2.6808e+06
3.64041e+06   1.45774e+06   -1.10235e+06
3.59466e+06   1.74776e+06   13251
4.45119e+06   1.86704e+06   -498221
3.29533e+06   2.30193e+06   -685289
4.5782e+06   806132   -740449
3.67254e+06   510254   -1.60253e+06
4.15725e+06   954789   -2.22628e+06
4.13269e+06   2.13696e+06   -1.6139e+06
3.20077e+06   1.25176e+06   -2.30352e+06
3.07922e+06   2.39834e+06   -1.42858e+06
3.29434e+06   961057   -688266
4.81786e+06   1.77581e+06   -1.28705e+06
-2.02354e+06   3.26065e+06   875393
-3.23633e+06   3.56999e+06   436939
-2.38483e+06   3.93387e+06   743046
-2.34324e+06   3.41376e+06   40513.9
-2.52804e+06   3.62084e+06   1.91478e+06
-3.0923e+06   2.63763e+06   1.17313e+06
-2.3973e+06   2.27652e+06   1.14908e+06
-2.13638e+06   2.74234e+06   406754
-1.60215e+06   3.68284e+06   303810
-1.37195e+06   3.15667e+06   634958
-2.28667e+06   -2.49108e+06   -2.19331e+06
-2.46926e+06   -3.06405e+06   -1.50672e+06
-3.27023e+06   -2.62091e+06   -2.4517e+06
-2.88496e+06   -3.48625e+06   -2.66645e+06
-2.36901e+06   -1.30462e+06   -2.22166e+06
-2.36908e+06   -2.03293e+06   -1.58261e+06
-1.52726e+06   -2.49379e+06   -1.92315e+06
-1.80884e+06   -2.20403e+06   -2.83035e+06
-1.93798e+06   -3.64809e+06   -2.4648e+06
-1.79924e+06   -2.75831e+06   -1.18511e+06
2.59261e+06   3.92241e+06   -3.27505e+06
2.72372e+06   4.12847e+06   -2.89309e+06
2.27774e+06   3.87106e+06   -2.7563e+06
3.03122e+06   3.34306e+06   -2.62738e+06
3.02434e+06   4.12455e+06   -2.58348e+06
2.26627e+06   4.22936e+06   -2.23173e+06
2.178e+06   3.04421e+06   -2.39753e+06
2.57744e+06   4.40808e+06   -2.59972e+06
1.46849e+06   -3.38535e+06   -3.05432e+06
259847   3.56021e+06   2.30334e+06
-1.00243e+06   3.3375e+06   2.05004e+06
-909481   3.96478e+06   2.68821e+06
-239592   3.75332e+06   1.31839e+06
622268   2.87752e+06   3.13036e+06
390509   2.19639e+06   2.69692e+06
777275   2.68791e+06   2.10261e+06
1.2479e+06   -5.34932e+06   -1.63109e+06
1.77059e+06   -5.16361e+06   -1.74214e+06
1.39322e+06   -5.15803e+06   -2.0704e+06
1.49358e+06   -4.69021e+06   -1.70879e+06
317774   4.31436e+06   1.82868e+06
517073   4.61913e+06   2.58161e+06
1.21533e+06   3.80702e+06   2.44124e+06
1.23688e+06   2.89701e+06   2.46698e+06
678212   3.64627e+06   1.55034e+06
311961   3.07076e+06   1.65018e+06
-4.11639e+06   -13315.7   3.98598e+06
-4.36891e+06   187287   3.70276e+06
-4.11584e+06   476253   3.95802e+06
-3.58288e+06   -26192.3   3.89354e+06
-3.56608e+06   -721046   4.42675e+06
-2.97317e+06   -135076   4.33229e+06
-3.18985e+06   -558851   4.7271e+06
-3.42814e+06   -939489   3.89979e+06
-3.02996e+06   848559   4.25831e+06
-3.50579e+06   -177809   4.52888e+06
-3.41357e+06   272023   4.59417e+06
-4.13241e+06   154110   3.06637e+06
-3.81925e+06   816989   4.1927e+06
1.64812e+06   -4.39698e+06   -3.28378e+06
815346   -4.04821e+06   -2.9391e+06
-2.27089e+06   1.16043e+06   3.94514e+06
-1.76998e+06   38318.2   3.01922e+06
-1.72945e+06   379739   3.61726e+06
-1.5561e+06   -631825   4.86525e+06
-1.01683e+06   -127751   4.04263e+06
-2.20011e+06   -981089   5.19902e+06
-2.30024e+06   -469147   5.22702e+06
-1.69307e+06   -23129.9   4.77367e+06
1.75683e+06   -5.39709e+06   786009
1.97287e+06   -5.37007e+06   320915
1.28122e+06   -5.1519e+06   119510
2.24258e+06   -4.59852e+06   370713
1.99539e+06   1.93251e+06   2.12928e+06
2.49297e+06   2.87299e+06   2.56089e+06
1.47554e+06   2.69281e+06   3.11837e+06
2.16335e+06   1.87053e+06   3.05295e+06
889817   1.54465e+06   3.01202e+06
1.25537e+06   2.11629e+06   2.48905e+06
1.77159e+06   2.06497e+06   3.72543e+06
1.19431e+06   2.8097e+06   4.07048e+06
826950   1.96292e+06   3.59077e+06
-4.81132e+06   -2.77827e+06   -1.4019e+06
-4.74296e+06   -2.61558e+06   -1.86975e+06
-5.00707e+06   -2.31295e+06   -1.55318e+06
-4.74897e+06   -2.04241e+06   -1.2109e+06
-2.98994e+06   1.66862e+06   -725259
-3.73485e+06   1.32014e+06   -1.70535e+06
-4.03844e+06   2.03903e+06   -969969
-3.26316e+06   2.05982e+06   -1.42834e+06
-5.08179e+06   2.47565e+06   -937769
-4.97657e+06   2.47122e+06   -1.3999e+06
-4.2463e+06   2.7718e+06   -851029
-4.68664e+06   2.00645e+06   -488483
-3.46269e+06   2.11504e+06   124817
-3.49831e+06   2.97001e+06   -849445
-4.13106e+06   2.55765e+06   -1.76472e+06
-2.91016e+06   4.36985e+06   -74863.9
3.13745e+06   1.09067e+06   4.66902e+06
3.31192e+06   1.53684e+06   4.41613e+06
3.45754e+06   953528   3.77818e+06
2.82303e+06   1.39052e+06   3.49793e+06
3.93707e+06   652479   4.11177e+06
4.207e+06   1.14816e+06   3.71696e+06
3.66872e+06   197613   3.40909e+06
3.63258e+06   239777   4.42491e+06
3.03888e+06   191277   4.31468e+06
3.53005e+06   898201   4.42322e+06
3.4491e+06   2.03177e+06   4.09982e+06
3.75592e+06   1.36331e+06   4.10698e+06
1.38138e+06   -780715   -3.11966e+06
2.15255e+06   -833585   -2.6309e+06
2.40788e+06   -1.53495e+06   -3.81101e+06
1.24499e+06   -2.03951e+06   -2.55742e+06
1.99258e+06   -1.73374e+06   -2.29647e+06
888225   -1.50778e+06   -3.03112e+06
1.69894e+06   -2.61714e+06   -4.03694e+06
984552   873869   -3.85483e+06
716878   1.23844e+06   -5.05147e+06
313559   1.5389e+06   -3.89725e+06
1.68105e+06   871392   -4.95356e+06
1.00023e+06   410340   -4.9392e+06
1.0692e+06   -4.74822e-10   -3.33269e+06
1.34708e+06   798059   -3.13025e+06
2.07158e+06   604245   -3.37305e+06
534602   925958   -3.33269e+06
936509   123937   -4.05213e+06
2.07777e+06   413630   -4.35966e+06
1.65875e+06   1.45318e+06   -4.25741e+06
-4.2536e+06   -3.43145e+06   -1.72189e+06
-4.00818e+06   -3.53934e+06   -2.05924e+06
-4.2207e+06   -3.23034e+06   -2.14091e+06
-3.60071e+06   -3.52863e+06   -1.81333e+06
-4.09698e+06   -3.06318e+06   -1.54915e+06
-4.07517e+06   -2.40864e+06   -2.4077e+06
-4.00059e+06   -2.03894e+06   -1.64526e+06
-4.45777e+06   -2.85389e+06   -2.19466e+06
-3.48152e+06   -3.20057e+06   -1.1461e+06
-4.41616e+06   -2.73063e+06   -1.01114e+06
-3.18722e+06   -2.34869e+06   -996539
-4.52525e+06   -3.2705e+06   -1.28796e+06
-4.52267e+06   -3.04213e+06   -1.76742e+06
245445   -3.57225e+06   2.88188e+06
795164   -4.01675e+06   1.72564e+06
1.24301e+06   -4.5689e+06   2.20009e+06
[...]
POINT_DATA 28959
VECTORS displacement float
-0.000260047   0.000663026   -9.44027e-05
-0.000310998   9.2974e-05   -0.000428139
-0.000343582   0.000689489   0.000157615
-0.000295128   0.000193957   3.31765e-05
-0.00014019   0.000494165   -8.50222e-05
-0.000346548   0.000264802   -0.000457002
-0.000261798   0.000190851   -0.000215537
-0.000166838   0.000650638   7.85798e-05
-0.000119198   0.000863484   5.81557e-05
-0.000360804   -5.39066e-05   -0.000590248
-0.000269977   0.000688803   -0.000374579
-0.000423585   0.000510025   -0.000616601
-0.00021206   0.00223542   0.000427721
4.75592e-05   0.001462   6.38486e-05
-6.98151e-05   0.000793209   -0.00019785
-0.000165358   0.00148633   0.00014563
-0.000194369   0.0010122   0.000240868
5.71893e-05   8.88065e-06   3.01143e-05
5.70892e-05   -5.38965e-06   8.35664e-05
6.72932e-05   1.6022e-06   6.42251e-05
0.000103525   8.79519e-06   6.9746e-05
9.25442e-05   1.868e-05   1.62727e-05
2.76555e-05   3.64716e-06   1.97746e-05
5.40218e-05   1.57927e-05   -1.57219e-05
0.000116539   2.16534e-05   3.42058e-05
9.80394e-05   2.61098e-05   1.32877e-06
8.87698e-05   1.46323e-05   4.46296e-05
-0.000418912   -9.33873e-05   -0.000489258
-0.000461183   -9.15222e-05   -0.000641797
-0.000406821   -3.43589e-05   -0.000488471
-0.000373202   -1.8872e-05   -0.000355438
-0.000421081   -9.44506e-05   -0.000411834
-0.000391851   -0.000123011   -0.000535567
-0.000493959   -9.10692e-05   -0.000598349
-0.000426019   -0.000132493   -0.000499176
-0.000388147   -6.58878e-05   -0.000354471
-0.000551049   0.000406852   6.64022e-05
-0.000184294   1.38491e-05   -0.000569868
-0.000566264   0.000258444   8.44489e-05
-0.0003473   4.26079e-05   -4.17747e-05
-0.000381775   -0.000118313   -0.000336671
-0.000397282   -9.83987e-05   -0.000375211
8.6054e-06   3.41201e-05   0.000130167
3.47968e-05   2.27507e-05   0.000121246
3.61712e-05   1.64461e-05   0.00015651
1.96291e-05   2.26803e-05   0.000162635
-0.000442401   -0.000111224   -0.000718655
9.52614e-05   -8.13338e-07   9.72624e-05
4.3408e-05   -2.05632e-05   0.000113246
3.88625e-05   -2.35949e-05   0.000115341
0.000161444   3.87819e-05   3.96764e-05
0.000126008   2.82033e-05   4.63278e-05
0.000173156   4.76828e-05   3.71561e-05
0.000112575   3.53099e-05   5.9088e-06
8.49614e-05   2.91304e-05   2.62003e-06
9.20796e-05   3.36355e-05   7.01086e-06
0.0001231   3.39687e-05   3.17466e-05
0.000126513   4.7444e-05   -1.48825e-05
0.000129068   4.46231e-05   1.38848e-05
0.00014947   3.01556e-05   7.13112e-05
0.000133587   3.24152e-05   5.73518e-05
9.36619e-05   1.75971e-05   5.4253e-05
-0.000412258   5.24489e-05   -0.000669233
-0.000231109   0.000254511   -0.000332001
-0.000367382   -3.14984e-06   -0.000497795
-0.00049206   -0.00030601   -0.00176298
-0.000633364   -0.000153929   -0.00116474
-0.000694463   -0.000318278   -0.00170107
2.06833e-07   -3.87342e-05   0.000124422
2.95734e-05   -3.97703e-05   0.000137938
1.18425e-05   -2.74979e-05   0.000109166
-0.000148205   0.000518714   -0.000494366
-2.82327e-05   -3.58841e-05   0.00010878
-2.70416e-05   -5.48176e-05   0.000138499
-3.29766e-05   -5.51034e-05   0.000138221
-2.12567e-06   -3.82145e-05   0.000123723
-5.56431e-05   -7.19155e-05   0.000143866
-2.92194e-05   -7.4825e-05   0.000156502
-5.50436e-06   -6.01348e-05   0.000147888
-4.53823e-05   -6.73916e-05   0.000148833
-6.10527e-05   -6.02849e-05   0.00013558
-3.22234e-05   -4.56457e-05   0.000120492
6.43184e-05   1.76349e-05   -1.75497e-05
2.04584e-05   7.68e-06   -2.44563e-05
5.37902e-05   6.67669e-06   2.71459e-05
2.80515e-06   -8.39961e-06   5.20286e-05
-0.000147026   1.05758e-05   3.51234e-05
-0.000188046   -3.07842e-05   -0.000124249
-0.000138464   -0.000184188   0.000106182
-0.00014004   -0.000147534   8.96553e-05
-0.000172666   7.3849e-05   -0.000100905
-0.000210179   1.68735e-05   -0.000109006
6.58721e-05   -2.85893e-05   0.000135146
3.75504e-05   -2.65146e-05   0.000119058
-9.14871e-05   -0.000342168   0.000101303
-0.000140097   -0.000284225   -0.000165688
-0.000275338   9.53626e-05   -0.000396004
-0.000298589   -2.33738e-05   -0.000568361
-0.000217447   -6.43183e-05   -0.000196245
-0.000189781   0.00011916   -0.000455458
-0.000153824   7.38824e-05   -7.94967e-05
6.06254e-05   -3.00254e-05   0.000154636
5.24467e-05   -1.89622e-05   0.000135088
5.85702e-05   -3.66026e-05   0.000159852
5.92619e-05   -9.70687e-06   0.000156158
4.88398e-05   -6.04412e-05   0.00015578
5.40976e-05   -4.37727e-05   0.00015452
7.15153e-05   -4.4313e-05   0.000171069
7.36012e-05   -2.96737e-05   0.000174316
7.7105e-05   -2.46709e-05   0.000160677
7.03913e-05   -1.11085e-05   0.000164717
4.97189e-05   -3.05979e-05   0.000138275
6.61835e-05   -4.7173e-05   0.000174664
-4.41065e-05   1.99341e-05   2.44553e-05
-2.34607e-05   4.42128e-05   -4.55126e-05
-2.59059e-05   2.35674e-05   3.0412e-05
2.78275e-06   2.35897e-05   1.17171e-05
-9.40637e-05   1.74544e-05   2.60773e-05
-0.000109543   4.83168e-05   -8.51881e-05
-0.000118712   3.90101e-05   -5.95123e-05
0   0   0
-7.89137e-06   2.3164e-05   6.75163e-05
-2.67365e-05   2.4874e-05   6.76164e-05
-1.02303e-05   1.0967e-05   -9.84459e-05
-5.25155e-05   -5.41661e-06   -0.000116163
5.88442e-06   2.65765e-05   -0.000167755
1.36629e-05   2.10257e-05   -0.000146594
-9.49646e-08   2.0269e-05   -9.13307e-05
-4.68403e-05   8.88191e-07   -0.000101047
-2.61548e-05   -2.18198e-06   -4.72356e-05
2.60523e-05   1.86663e-05   -6.5184e-05
1.094e-07   8.81727e-06   -8.28322e-05
-6.96736e-05   -1.62708e-05   -6.59987e-05
0.00012575   3.9427e-06   0.000185797
0.00011401   1.92577e-06   0.000190238
0.000110033   4.12089e-06   0.000179611
0.000101671   -5.98395e-06   0.000184146
0.000103368   -1.97128e-06   0.000194285
9.49914e-05   4.68281e-06   0.000184524
9.46399e-05   6.8291e-07   0.000166108
0.000106518   3.33691e-06   0.000191607
1.70211e-05   -1.95053e-05   9.57856e-05
-8.2722e-05   -6.14717e-06   0.000174831
-9.5662e-05   1.58111e-05   0.000106601
-0.000102875   -6.20176e-05   0.00019189
-4.65926e-05   2.40708e-05   0.000146407
-0.000120554   -2.99287e-05   0.000107019
-0.000100974   0.000115126   -0.00010359
-5.44247e-05   6.17987e-05   4.73756e-05
-6.77595e-05   -3.537e-05   8.73943e-05
-6.50566e-05   -4.29436e-05   0.000107531
-4.78377e-05   -3.26945e-05   9.07296e-05
-5.78479e-05   -3.79472e-05   9.92858e-05
-6.02832e-05   -6.33464e-06   0.000200785
-9.17361e-05   -7.1433e-05   0.000256013
-7.81819e-05   -1.55985e-05   0.000202731
-5.96472e-05   2.70526e-05   9.25858e-05
-4.32352e-05   2.43946e-05   0.000165257
-5.57856e-05   3.74193e-05   0.000113733
-0.000394296   -3.1032e-05   -0.00035262
-0.000376191   -1.6702e-05   -0.000328377
-0.000366128   -2.0947e-05   -0.000322636
-0.00040962   -3.8443e-05   -0.000379416
-0.000425051   -6.36633e-05   -0.000378811
-0.00044561   -7.54733e-05   -0.000484923
-0.000444568   -7.05629e-05   -0.00043005
-0.000409599   -6.8886e-05   -0.000364034
-0.000344605   -5.75052e-05   -0.000344752
-0.000416859   -5.92129e-05   -0.000398133
-0.000390329   -6.18318e-05   -0.000383306
-0.000363008   -1.29454e-05   -0.000321542
-0.000342045   -3.59051e-05   -0.000307155
1.1726e-05   -2.29748e-05   9.69919e-05
7.01863e-06   -1.19473e-05   6.63707e-05
-0.000308334   -6.03731e-05   -0.000353209
-0.000478019   -6.32143e-05   -0.000696716
-0.000409021   -5.46599e-05   -0.000729892
-0.000538578   -0.000138527   -0.00087968
-0.000493434   -0.00011593   -0.00124403
-0.000436908   -6.00774e-05   -0.000554969
-0.000505894   -0.000109573   -0.000649564
-0.000574407   -0.000137371   -0.000946035
-0.000173965   -6.55419e-05   0.000143611
-0.000155022   -6.79706e-05   0.000140233
-0.000140205   -5.65599e-05   0.000112245
-0.000141873   -7.97129e-05   0.000147349
2.10101e-05   6.27283e-05   -3.71379e-05
-3.13969e-05   7.01011e-06   0.00011835
-8.62657e-05   -1.28642e-05   7.42303e-05
-2.18896e-05   1.01645e-05   -6.27424e-05
-5.00994e-05   0.000116556   -0.000372518
-2.72946e-05   8.34881e-05   -0.000108347
-9.76092e-05   -5.21467e-05   -7.12147e-05
-0.000187675   -0.00023504   0.000158081
-0.000103688   -3.30228e-05   -0.000189528
-6.39665e-05   2.06056e-05   -0.000293435
-3.12229e-05   3.1862e-05   -0.000282655
-5.29386e-05   3.26783e-05   -0.000303705
-7.65613e-05   2.4743e-05   -0.000284854
-3.20489e-05   3.96194e-05   -8.92071e-05
1.97563e-05   6.32038e-05   -0.000143445
-6.13017e-06   6.97915e-05   -0.000151568
2.57032e-05   5.65386e-05   -9.21549e-05
6.4491e-06   0.000100822   -0.000213423
3.52168e-05   0.000101869   -0.000202365
1.40448e-05   7.95378e-05   -0.000142432
-4.09737e-05   8.26383e-05   -0.000203855
-7.11633e-05   5.23396e-05   -0.000120604
2.48948e-05   6.07064e-05   -8.21501e-05
6.00087e-05   8.40518e-05   -0.000136267
2.5446e-05   3.8377e-05   3.21336e-06
-9.43985e-05   -9.90956e-05   -0.000117917
-9.88908e-05   -8.96334e-05   -2.3001e-05
-2.53086e-05   -6.77775e-05   -4.66311e-05
-1.57046e-05   -3.25445e-05   -9.17477e-05
-5.99713e-05   -9.54555e-05   -9.2339e-06
-3.33022e-05   -8.42709e-05   4.77997e-05
-1.691e-05   -9.44453e-05   -3.46287e-05
-8.76775e-05   -0.000103053   -7.00924e-05
-5.85585e-05   -9.6927e-05   -0.000187297
-7.86436e-05   -9.24777e-05   -5.51187e-05
-9.2624e-05   -8.27164e-05   4.89747e-05
-6.38073e-05   -8.33899e-05   1.48372e-05
6.55478e-05   -8.44737e-06   0.000103332
4.96502e-05   -2.51303e-05   0.000125689
7.40198e-05   -2.27316e-05   0.000132479
1.83278e-05   -1.93469e-05   9.22006e-05
2.03821e-05   -3.21941e-05   0.000119288
4.74432e-05   -6.406e-06   7.91321e-05
6.87377e-05   -1.1769e-05   0.000104397
0.000120161   1.2174e-05   0.000105495
0.000173485   3.00447e-05   9.86379e-05
0.000134215   2.50143e-05   8.89476e-05
0.00015811   1.27675e-05   0.000127419
0.0001559   2.09016e-05   9.96902e-05
8.80493e-05   1.97388e-06   9.80288e-05
9.39303e-05   1.56989e-06   0.000116024
9.67731e-05   -8.00882e-06   0.000136741
0.000102476   1.35906e-05   8.87964e-05
0.000116251   1.12444e-05   9.47661e-05
0.000127172   -1.33153e-06   0.000135824
0.000139444   8.95842e-06   0.000133875
-4.11699e-05   1.45136e-05   -0.000251667
-2.03171e-05   1.87485e-05   -0.00023172
-1.479e-05   2.53744e-05   -0.000245122
-3.54924e-05   9.18169e-06   -0.00020199
-5.2267e-05   1.21335e-05   -0.000238085
4.12899e-06   3.7236e-05   -0.000226188
-4.49925e-05   2.28775e-05   -0.000223384
-1.01906e-05   3.29361e-05   -0.00025989
-7.72243e-05   -6.14069e-06   -0.000194409
-9.10417e-05   5.72349e-06   -0.000265848
-8.81125e-05   -5.98156e-06   -0.000169941
-6.99578e-05   8.48539e-06   -0.0002752
-3.81559e-05   2.24724e-05   -0.000269499
-0.000239319   -4.34995e-05   0.000128481
-0.000192802   -7.59227e-05   0.000122674
-0.000226856   -4.97066e-05   0.000176479
-0.000251321   -1.84295e-05   0.000150407
-0.000259656   -1.05771e-05   0.000194592
-0.000246366   -2.12641e-05   0.00016288
-0.000292245   5.40381e-05   0.000217095
-0.000268735   7.87334e-06   0.000185664
-0.000277107   1.33728e-05   0.000212022
-0.000253861   -9.59258e-06   0.000149033
-0.00021486   -4.6542e-05   0.000111153
1.17374e-05   4.81113e-05   -0.000149559
-5.55418e-05   4.5269e-05   -0.000188926
2.26837e-05   7.20224e-05   -0.000203541
-3.63243e-05   5.75398e-05   -0.000249046
-4.01063e-05   2.85183e-05   -0.000140686
-3.99415e-05   -6.96617e-05   0.000130738
-1.84918e-05   -7.12101e-05   0.000146265
-5.38974e-05   -0.000101055   0.000147018
-3.44507e-05   3.78715e-05   -0.00012566
4.10658e-05   3.73801e-05   -7.4551e-05
5.18708e-06   3.08653e-05   -0.000106673
6.43126e-05   5.78931e-05   -0.00014719
6.74587e-06   3.92826e-05   -0.000177621
1.29545e-05   6.03798e-05   -0.000219268
0.00011152   -3.38824e-05   0.000182722
0.000105627   -2.75802e-05   0.000177392
0.000113241   -2.42969e-05   0.000168512
8.64946e-05   -3.26688e-05   0.000168183
-3.79538e-05   -3.42071e-05   8.77356e-05
-6.50052e-05   -4.83363e-05   0.000102936
-4.78962e-05   -3.12761e-05   8.53278e-05
0.00012247   -2.59714e-05   0.000178228
0.000132879   -1.74164e-05   0.000176421
-8.92527e-05   2.11859e-05   -0.000315931
-7.07359e-05   3.64498e-05   -0.000320286
0.000142637   -1.05352e-05   0.000163419
0.000120902   -1.54381e-05   0.000153608
0.000120352   -7.46288e-06   0.000155435
0.000133189   -1.81482e-05   0.000171502
0.000129036   -2.04315e-05   0.000166269
0.000143635   -9.6679e-06   0.000168821
3.36764e-05   1.05167e-05   0.00015111
5.25621e-05   1.52743e-05   0.000147179
3.07052e-05   7.21507e-06   0.000169905
1.2538e-05   9.80112e-06   0.000151107
5.75693e-05   2.02906e-05   0.000119838
7.3318e-05   2.66284e-05   9.53976e-05
7.63673e-05   1.76945e-05   0.000145531
4.75763e-05   1.97704e-05   0.000117348
6.42817e-05   1.51022e-05   0.000155833
8.22397e-05   2.00937e-05   0.00014077
5.19302e-05   1.57878e-05   0.00013561
6.66307e-05   1.82066e-05   0.00013965
6.47916e-05   1.28194e-05   0.000169564
4.56207e-05   9.7802e-06   0.000173439
3.58542e-05   1.33435e-05   0.000161538
-0.000698063   -0.000398933   -0.00406677
7.06301e-06   6.46465e-06   -0.00200132
-0.000347578   7.45256e-06   -0.00153645
-0.000215117   -7.69614e-05   -0.000993674
0.000423531   -4.21642e-06   -0.0041291
6.89873e-05   -4.43587e-05   -0.00113728
-3.6208e-05   -0.000117543   -0.000911718
0.000239774   -4.14224e-05   -0.00163707
-0.000236513   -6.00301e-05   -0.00134372
-0.000103111   -8.91131e-06   -0.000951447
-6.2082e-06   -4.82711e-05   -0.0012469
-0.000134182   -9.90302e-05   -0.00116209
0.000188386   -0.00012555   -0.00175302
-1.51688e-05   -2.50074e-05   9.05399e-05
-7.26194e-06   -1.87543e-05   7.21343e-05
-3.59098e-05   -1.9157e-05   4.26718e-05
-2.04927e-05   -1.08084e-05   3.29755e-05
-0.000212853   -5.28328e-05   -0.000243008
-0.00019653   -2.96669e-05   -0.000290188
-0.000133484   -1.56719e-05   -0.000245895
-0.000159562   -2.93018e-05   -0.000262592
-0.000237681   -4.84777e-05   -0.000301987
-0.000267839   -5.52516e-05   -0.000284096
-0.000245465   -6.61177e-05   -0.000249019
-0.000258887   -6.0384e-05   -0.000281981
-0.000263437   -7.99591e-05   -0.00021731
4.39606e-05   1.62333e-05   0.00014464
1.91029e-05   1.24975e-05   0.000186393
-8.14847e-06   1.95344e-05   0.000158763
-0.000223063   -3.00547e-05   -0.000274722
-0.000189751   -4.80942e-05   -0.000204493
3.9554e-06   -9.6918e-06   -0.000691545
5.77162e-05   7.62589e-06   0.000199111
7.06112e-05   9.968e-06   0.000189353
7.28656e-05   7.74454e-06   0.000195934
4.8772e-05   9.69458e-06   0.000183912
2.4408e-05   -0.000115109   -0.0009388
9.06305e-05   2.71454e-05   -0.000627771
-4.29584e-05   0.000101535   -0.000915099
-0.000107797   -4.03645e-05   8.1178e-05
-8.78595e-05   -3.86778e-05   8.38895e-05
-8.91171e-05   -3.25612e-05   5.92207e-05
-9.20534e-05   -3.68869e-05   7.30364e-05
6.87916e-05   1.80041e-05   1.72155e-05
7.22742e-05   2.95992e-05   -3.50315e-05
0.000106335   2.66135e-05   2.44213e-05
0.000129386   4.87775e-05   -4.84093e-05
9.63269e-05   4.41339e-05   -4.74443e-05
0.000163606   6.15159e-05   -3.44215e-05
0.000154305   4.69391e-05   -2.7836e-06
0.000177857   5.81515e-05   1.71619e-05
4.82281e-05   6.44912e-05   -0.00025132
5.20266e-05   5.77252e-05   -0.000234936
7.12636e-05   6.74213e-05   -0.000229097
4.40554e-05   6.09386e-05   -0.000218947
7.31203e-05   4.90769e-05   -0.000178568
8.58239e-05   5.79094e-05   -0.000186101
4.71386e-05   4.97407e-05   -0.000197383
5.31212e-05   4.3206e-05   -0.000145417
3.1701e-05   5.68658e-05   -0.000257489
7.16866e-05   -2.72391e-05   0.000188782
8.28887e-05   -1.67446e-05   0.000184654
6.58259e-05   -8.51781e-06   0.00018336
-3.62553e-06   4.74561e-05   -0.000253329
3.64246e-05   4.61076e-05   -0.00022914
-0.00015545   -1.45707e-05   -0.000309045
-0.000153937   -4.2024e-06   -0.00032303
-0.000206356   -4.23068e-05   -0.000291361
-0.00024391   -3.64114e-05   -0.000325732
-0.000130781   -3.37602e-05   -0.000180422
-0.00018113   -2.85446e-05   -0.000302883
-0.000192284   -9.61013e-05   9.69422e-05
-0.000245783   -5.30802e-05   0.00019973
-0.000208955   -9.3659e-05   0.000182254
-0.000267279   -3.68781e-05   0.000173237
4.78519e-05   9.8406e-06   0.000183265
-0.000132108   -0.000135682   9.60828e-05
-8.69528e-05   -0.00014454   -5.92631e-05
-0.000269337   -3.4854e-05   0.000116351
-0.000176519   -0.000102919   0.000126708
-0.000319214   9.02475e-05   0.000228144
-0.000288332   9.53231e-06   7.66765e-05
-0.000225577   -7.27479e-05   9.43683e-05
8.24703e-05   1.56896e-05   0.000164847
9.90051e-05   1.76745e-05   0.000161728
8.45689e-05   1.31647e-05   0.000176835
7.45851e-05   1.45319e-05   0.000155668
8.56737e-05   1.05588e-05   0.000186483
9.09798e-05   1.22444e-05   0.000173238
-7.34368e-05   -1.37169e-05   -0.000180618
-4.82653e-05   -5.01764e-06   -0.000165025
-3.93671e-05   7.75118e-07   -0.00015776
-8.15094e-05   -1.85797e-05   -0.000132843
-5.36783e-05   -3.88622e-06   -0.000194319
-3.44091e-05   6.13543e-06   -0.000204531
-1.13824e-05   1.32295e-05   -0.000187503
-2.95085e-05   3.94276e-06   -0.000177421
-3.85856e-05   -3.58961e-06   -0.00011924
-2.47094e-05   2.85482e-06   -0.000149207
-3.10251e-06   9.59863e-06   -0.000133623
-6.78265e-06   1.12978e-05   -0.000161497
7.94144e-05   6.77641e-06   0.000144755
7.71859e-05   6.99014e-06   0.000158773
9.88067e-05   8.21993e-06   0.000143588
8.88639e-05   1.40855e-05   0.000142612
6.03662e-05   1.1527e-05   0.00015857
7.70999e-05   7.81703e-06   0.000175143
7.05841e-05   -1.64457e-08   0.000154318
7.28154e-05   5.42849e-07   0.000168556
7.04765e-05   1.35308e-05   0.000136236
5.83959e-05   7.78398e-06   0.000156968
0.000166532   2.90949e-05   0.000110557
0.000125611   2.00526e-05   0.000108288
0.000165266   3.04895e-05   0.000123051
0.000180195   4.11213e-05   9.07623e-05
0.000161003   2.21444e-05   0.000136173
0.000123123   1.29248e-05   0.000117382
0.000176577   4.20528e-05   7.07759e-05
0.000192896   3.98783e-05   0.00010984
0.000196326   4.01072e-05   0.000103912
5.35071e-05   -3.88598e-05   0.000173425
5.10893e-05   -1.01883e-05   0.000160243
5.37963e-05   -2.60607e-05   0.000181368
6.09903e-05   -2.41888e-05   0.000176047
4.81159e-05   -8.42448e-05   0.000173463
5.75328e-05   -7.512e-05   0.000178301
4.62426e-05   -8.70289e-05   0.00017584
5.18306e-05   -7.05497e-05   0.000169343
4.94484e-05   -3.15194e-05   0.000142637
5.82519e-05   3.58749e-07   0.000154768
6.33989e-05   -4.34001e-05   0.000178467
6.9636e-05   -3.81522e-05   0.00018393
6.005e-05   3.91522e-06   0.000203642
5.97934e-05   5.91112e-06   0.000202502
7.32233e-05   5.80869e-06   0.000199411
6.57777e-05   5.90048e-06   0.000192098
6.56446e-05   -2.03547e-05   0.000190045
5.68552e-05   -4.85941e-05   0.00017253
5.9223e-05   -3.52897e-05   0.000179007
2.08658e-05   3.37606e-05   2.59185e-05
4.31552e-05   3.95606e-05   1.81337e-05
1.06539e-06   2.31886e-05   5.47856e-05
4.31483e-06   3.72387e-05   2.20711e-06
9.51997e-06   5.02733e-05   -3.41339e-05
-1.95157e-05   3.43297e-05   -4.92913e-06
3.22184e-05   5.71998e-05   -4.03566e-05
3.49485e-05   5.43242e-05   -4.21122e-05
4.96591e-05   5.06701e-05   -1.2729e-05
-0.000280688   -2.69436e-05   -7.1924e-05
-0.000115188   -6.66356e-05   -0.000315523
-0.000190648   -7.92072e-05   -7.32602e-05
-7.13642e-05   -0.000115028   -0.000184772
-2.17319e-05   -2.25149e-05   -0.00079135
2.79437e-06   -5.92676e-05   -0.000670175
5.2528e-05   -4.31766e-05   -0.000714722
-1.99896e-06   -6.18426e-05   -0.000380456
-7.96177e-05   -0.00012159   -0.000492949
-4.21514e-05   -5.2407e-05   -0.000518016
-0.000154316   -4.56248e-05   -0.000346617
-0.000280742   2.11049e-05   -0.000336871
-0.000274551   -8.24019e-06   -0.00019313
-0.000306283   4.46511e-05   -0.00035024
-0.000162946   -0.000131135   -0.000147178
-0.000345749   0.000145953   -0.000170713
-9.71045e-05   -0.000169856   -0.000115918
-0.000155367   -0.000146539   -2.75252e-05
-0.000120911   -0.000217555   -0.000743392
-2.44927e-05   -0.000204959   -0.000512444
-0.000195816   -7.13634e-05   -2.97434e-05
-0.000705448   -0.000416287   -0.00121178
-0.000383597   -0.000214129   -0.000718054
-0.000221086   -0.000445487   -0.000648355
-0.000679295   -0.00021696   -0.00176081
6.66325e-05   -0.000624857   -0.000244614