# vtk DataFile Version 2.3
FEM Grid Data
ASCII
DATASET UNSTRUCTURED_GRID
POINTS 28959 float
-526185   -1.53048e+06   5.01694e+06
-50778.8   -1.37681e+06   4.41256e+06
-74015.3   -1.8988e+06   4.92592e+06
-149872   -2.16568e+06   4.23679e+06
-1.19938e+06   -1.78044e+06   5.31267e+06
-952779   -1.113e+06   5.08147e+06
-1.21683e+06   -1.80527e+06   4.82005e+06
-909908   -2.17288e+06   5.22337e+06
-794076   -1.80894e+06   5.37867e+06
-922229   -1.22497e+06   4.40823e+06
-478003   -1.0431e+06   5.16958e+06
-70857   -957782   4.97573e+06
-118895   -1.28308e+06   5.58323e+06
-574369   -1.15349e+06   5.58323e+06
-967492   -1.36162e+06   5.48114e+06
-400017   -1.6225e+06   5.48091e+06
-464739   -2.09257e+06   5.31395e+06
-53045.6   -2.17372e+06   -3.48351e+06
1.04495e+06   -1.99518e+06   -3.48061e+06
751766   -2.95117e+06   -3.97285e+06
832951   -2.30568e+06   -4.59536e+06
-201619   -2.95065e+06   -4.37616e+06
-223581   -2.81973e+06   -3.03469e+06
-846909   -2.43455e+06   -3.47e+06
80926   -2.23187e+06   -4.75467e+06
-626300   -2.01932e+06   -4.22319e+06
123098   -1.50647e+06   -3.94708e+06
-2.55128e+06   -474511   3.39756e+06
-2.19669e+06   -22015.4   4.08418e+06
-2.40174e+06   233207   3.19193e+06
-3.19623e+06   533982   3.44142e+06
-2.53701e+06   -1.26623e+06   4.46635e+06
-1.68532e+06   -1.12813e+06   3.74436e+06
-2.42625e+06   -496390   4.70757e+06
-2.1086e+06   -671392   2.71165e+06
-3.17683e+06   -597890   2.71408e+06
1.23189e+06   -1.7144e+06   4.90315e+06
1.28408e+06   -771360   4.49506e+06
2.03331e+06   -1.59108e+06   5.11537e+06
2.04555e+06   -1.51489e+06   4.53583e+06
-2.61201e+06   -1.29148e+06   2.77345e+06
-2.72404e+06   -1.29973e+06   3.6482e+06
1.78798e+06   2.85567e+06   947780
2.47323e+06   2.40025e+06   609872
1.93239e+06   2.917e+06   -83627
2.11813e+06   3.36987e+06   511166
-1.76858e+06   -418446   3.57109e+06
1.3732e+06   -1.63655e+06   -4.27257e+06
1.79692e+06   -1.79263e+06   -3.06863e+06
1.96893e+06   -2.54572e+06   -3.2912e+06
-221665   -304169   -5.10324e+06
-140904   -132090   -4.2766e+06
-586190   730934   -4.97612e+06
-933359   -322267   -3.98591e+06
-1.0692e+06   -1.3094e-10   -3.33269e+06
-1.22839e+06   776688   -3.18399e+06
-608949   386864   -3.99143e+06
-1.50448e+06   302157   -4.01461e+06
-1.27262e+06   1.27819e+06   -3.74991e+06
200837   655954   -4.57811e+06
-287216   1.09015e+06   -3.99691e+06
-2.14313e-10   -2.62458e-26   -3.5e+06
-1.4077e+06   -897017   5.48148e+06
-1.41089e+06   -1.38938e+06   5.37698e+06
-1.48434e+06   -1.23024e+06   4.93197e+06
-299905   -519957   4.60042e+06
-1.07676e+06   -561965   5.11693e+06
-654734   -422935   5.16787e+06
2.25682e+06   -3.06652e+06   -2.56776e+06
2.70411e+06   -2.18929e+06   -2.92881e+06
1.72247e+06   -2.45732e+06   -2.56198e+06
-952271   -868110   5.58323e+06
1.82344e+06   -4.23606e+06   -2.31095e+06
2.75324e+06   -3.7488e+06   -2.21891e+06
2.795e+06   -4.39498e+06   -2.38851e+06
2.31806e+06   -3.83873e+06   -2.86069e+06
2.8903e+06   -3.41878e+06   -1.19466e+06
3.52523e+06   -3.33825e+06   -1.95766e+06
3.15627e+06   -2.79679e+06   -2.27449e+06
3.16237e+06   -4.30649e+06   -2.07038e+06
2.57488e+06   -4.26272e+06   -1.57522e+06
2.05547e+06   -3.26627e+06   -1.78518e+06
-814525   -3.39665e+06   -3.80721e+06
-1.05971e+06   -2.78952e+06   -2.83681e+06
48671.5   -3.73937e+06   -3.76955e+06
391112   -3.19957e+06   -2.60542e+06
-1.38488e+06   2.79074e+06   2.64166e+06
-783563   2.02012e+06   3.33975e+06
-477065   2.65256e+06   3.73814e+06
-1.51043e+06   2.78638e+06   3.60959e+06
-1.37815e+06   2.13344e+06   2.40813e+06
-1.83762e+06   2.11771e+06   2.87022e+06
2.63198e+06   -2.3858e+06   -4.01003e+06
2.1722e+06   -3.28571e+06   -3.61733e+06
-1.37279e+06   2.4557e+06   4.38062e+06
-630265   1.77553e+06   4.35584e+06
-1.11156e+06   1.48321e+06   2.96893e+06
-1.42804e+06   1.13259e+06   3.7054e+06
-1.55992e+06   1.84661e+06   3.62682e+06
-70493.5   1.59129e+06   3.11654e+06
-533887   2.18592e+06   2.6808e+06
3.64041e+06   1.45774e+06   -1.10235e+06
3.59466e+06   1.74776e+06   13251
4.45119e+06   1.86704e+06   -498221
3.29533e+06   2.30193e+06   -685289
4.5782e+06   806132   -740449
3.67254e+06   510254   -1.60253e+06
4.15725e+06   954789   -2.22628e+06
4.13269e+06   2.13696e+06   -1.6139e+06
3.20077e+06   1.25176e+06   -2.30352e+06
3.07922e+06   2.39834e+06   -1.42858e+06
3.29434e+06   961057   -688266
4.81786e+06   1.77581e+06   -1.28705e+06
-2.02354e+06   3.26065e+06   875393
-3.23633e+06   3.56999e+06   436939
-2.38483e+06   3.93387e+06   743046
-2.34324e+06   3.41376e+06   40513.9
-2.52804e+06   3.62084e+06   1.91478e+06
-3.0923e+06   2.63763e+06   1.17313e+06
-2.3973e+06   2.27652e+06   1.14908e+06
-2.13638e+06   2.74234e+06   406754
-1.60215e+06   3.68284e+06   303810
-1.37195e+06   3.15667e+06   634958
-2.28667e+06   -2.49108e+06   -2.19331e+06
-2.46926e+06   -3.06405e+06   -1.50672e+06
-3.27023e+06   -2.62091e+06   -2.4517e+06
-2.88496e+06   -3.48625e+06   -2.66645e+06
-2.36901e+06   -1.30462e+06   -2.22166e+06
-2.36908e+06   -2.03293e+06   -1.58261e+06
-1.52726e+06   -2.49379e+06   -1.92315e+06
-1.80884e+06   -2.20403e+06   -2.83035e+06
-1.93798e+06   -3.64809e+06   -2.4648e+06
-1.79924e+06   -2.75831e+06   -1.18511e+06
2.59261e+06   3.92241e+06   -3.27505e+06
2.72372e+06   4.12847e+06   -2.89309e+06
2.27774e+06   3.87106e+06   -2.7563e+06
3.03122e+06   3.34306e+06   -2.62738e+06
3.02434e+06   4.12455e+06   -2.58348e+06
2.26627e+06   4.22936e+06   -2.23173e+06
2.178e+06   3.04421e+06   -2.39753e+06
2.57744e+06   4.40808e+06   -2.59972e+06
1.46849e+06   -3.38535e+06   -3.05432e+06
259847   3.56021e+06   2.30334e+06
-1.00243e+06   3.3375e+06   2.05004e+06
-909481   3.96478e+06   2.68821e+06
-239592   3.75332e+06   1.31839e+06
622268   2.87752e+06   3.13036e+06
390509   2.19639e+06   2.69692e+06
777275   2.68791e+06   2.10261e+06
1.2479e+06   -5.34932e+06   -1.63109e+06
1.77059e+06   -5.16361e+06   -1.74214e+06
1.39322e+06   -5.15803e+06   -2.0704e+06
1.49358e+06   -4.69021e+06   -1.70879e+06
317774   4.31436e+06   1.82868e+06
517073   4.61913e+06   2.58161e+06
1.21533e+06   3.80702e+06   2.44124e+06
1.23688e+06   2.89701e+06   2.46698e+06
678212   3.64627e+06   1.55034e+06
311961   3.07076e+06   1.65018e+06
-4.11639e+06   -13315.7   3.98598e+06
-4.36891e+06   187287   3.70276e+06
-4.11584e+06   476253   3.95802e+06
-3.58288e+06   -26192.3   3.89354e+06
-3.56608e+06   -721046   4.42675e+06
-2.97317e+06   -135076   4.33229e+06
-3.18985e+06   -558851   4.7271e+06
-3.42814e+06   -939489   3.89979e+06
-3.02996e+06   848559   4.25831e+06
-3.50579e+06   -177809   4.52888e+06
-3.41357e+06   272023   4.59417e+06
-4.13241e+06   154110   3.06637e+06
-3.81925e+06   816989   4.1927e+06
1.64812e+06   -4.39698e+06   -3.28378e+06
815346   -4.04821e+06   -2.9391e+06
-2.27089e+06   1.16043e+06   3.94514e+06
-1.76998e+06   38318.2   3.01922e+06
-1.72945e+06   379739   3.61726e+06
-1.5561e+06   -631825   4.86525e+06
-1.01683e+06   -127751   4.04263e+06
-2.20011e+06   -981089   5.19902e+06
-2.30024e+06   -469147   5.22702e+06
-1.69307e+06   -23129.9   4.77367e+06
1.75683e+06   -5.39709e+06   786009
1.97287e+06   -5.37007e+06   320915
1.28122e+06   -5.1519e+06   119510
2.24258e+06   -4.59852e+06   370713
1.99539e+06   1.93251e+06   2.12928e+06
2.49297e+06   2.87299e+06   2.56089e+06
1.47554e+06   2.69281e+06   3.11837e+06
2.16335e+06   1.87053e+06   3.05295e+06
889817   1.54465e+06   3.01202e+06
1.25537e+06   2.11629e+06   2.48905e+06
1.77159e+06   2.06497e+06   3.72543e+06
1.19431e+06   2.8097e+06   4.07048e+06
826950   1.96292e+06   3.59077e+06
-4.81132e+06   -2.77827e+06   -1.4019e+06
-4.74296e+06   -2.61558e+06   -1.86975e+06
-5.00707e+06   -2.31295e+06   -1.55318e+06
-4.74897e+06   -2.04241e+06   -1.2109e+06
-2.98994e+06   1.66862e+06   -725259
-3.73485e+06   1.32014e+06   -1.70535e+06
-4.03844e+06   2.03903e+06   -969969
-3.26316e+06   2.05982e+06   -1.42834e+06
-5.08179e+06   2.47565e+06   -937769
-4.97657e+06   2.47122e+06   -1.3999e+06
-4.2463e+06   2.7718e+06   -851029
-4.68664e+06   2.00645e+06   -488483
-3.46269e+06   2.11504e+06   124817
-3.49831e+06   2.97001e+06   -849445
-4.13106e+06   2.55765e+06   -1.76472e+06
-2.91016e+06   4.36985e+06   -74863.9
3.13745e+06   1.09067e+06   4.66902e+06
3.31192e+06   1.53684e+06   4.41613e+06
3.45754e+06   953528   3.77818e+06
2.82303e+06   1.39052e+06   3.49793e+06
3.93707e+06   652479   4.11177e+06
4.207e+06   1.14816e+06   3.71696e+06
3.66872e+06   197613   3.40909e+06
3.63258e+06   239777   4.42491e+06
3.03888e+06   191277   4.31468e+06
3.53005e+06   898201   4.42322e+06
3.4491e+06   2.03177e+06   4.09982e+06
3.75592e+06   1.36331e+06   4.10698e+06
1.38138e+06   -780715   -3.11966e+06
2.15255e+06   -833585   -2.6309e+06
2.40788e+06   -1.53495e+06   -3.81101e+06
1.24499e+06   -2.03951e+06   -2.55742e+06
1.99258e+06   -1.73374e+06   -2.29647e+06
888225   -1.50778e+06   -3.03112e+06
1.69894e+06   -2.61714e+06   -4.03694e+06
984552   873869   -3.85483e+06
716878   1.23844e+06   -5.05147e+06
313559   1.5389e+06   -3.89725e+06
1.68105e+06   871392   -4.95356e+06
1.00023e+06   410340   -4.9392e+06
1.0692e+06   -4.74822e-10   -3.33269e+06
1.34708e+06   798059   -3.13025e+06
2.07158e+06   604245   -3.37305e+06
534602   925958   -3.33269e+06
936509   123937   -4.05213e+06
2.07777e+06   413630   -4.35966e+06
1.65875e+06   1.45318e+06   -4.25741e+06
-4.2536e+06   -3.43145e+06   -1.72189e+06
-4.00818e+06   -3.53934e+06   -2.05924e+06
-4.2207e+06   -3.23034e+06   -2.14091e+06
-3.60071e+06   -3.52863e+06   -1.81333e+06
-4.09698e+06   -3.06318e+06   -1.54915e+06
-4.07517e+06   -2.40864e+06   -2.4077e+06
-4.00059e+06   -2.03894e+06   -1.64526e+06
-4.45777e+06   -2.85389e+06   -2.19466e+06
-3.48152e+06   -3.20057e+06   -1.1461e+06
-4.41616e+06   -2.73063e+06   -1.01114e+06
-3.18722e+06   -2.34869e+06   -996539
-4.52525e+06   -3.2705e+06   -1.28796e+06
-4.52267e+06   -3.04213e+06   -1.76742e+06
245445   -3.57225e+06   2.88188e+06
795164   -4.01675e+06   1.72564e+06
1.24301e+06   -4.5689e+06   2.20009e+06
[...]
POINT_DATA 28959
VECTORS displacement float
-0.000258157   0.00062138   -9.91482e-05
-0.000303096   7.03331e-05   -0.000434006
-0.000336567   0.000649621   0.000142265
-0.000289876   0.000176483   1.88901e-05
-0.00014743   0.00047733   -9.28188e-05
-0.000335217   0.00024922   -0.000450073
-0.000260055   0.00017979   -0.000220167
-0.000176816   0.000617532   6.27061e-05
-0.000129629   0.000819795   4.17389e-05
-0.000354689   -6.47164e-05   -0.000590956
-0.000266136   0.000636597   -0.000377681
-0.000408454   0.000457398   -0.000618918
-0.000229582   0.00210115   0.000437142
9.9685e-06   0.00138781   6.25222e-05
-8.28523e-05   0.000757516   -0.000190272
-0.000180604   0.00139792   0.000148991
-0.000203337   0.000952235   0.000218247
5.68716e-05   1.05982e-05   2.909e-05
5.7359e-05   -3.29985e-06   8.15722e-05
6.71524e-05   4.14027e-06   6.14956e-05
0.000102894   1.17042e-05   6.77787e-05
9.15817e-05   2.13344e-05   1.44938e-05
2.76656e-05   4.90527e-06   1.78205e-05
5.34418e-05   1.75156e-05   -1.63893e-05
0.000115441   2.4451e-05   3.30096e-05
9.70157e-05   2.83365e-05   9.15793e-07
8.8205e-05   1.66468e-05   4.39612e-05
-0.000409889   -9.24124e-05   -0.000478844
-0.000447273   -9.03244e-05   -0.000627489
-0.000399632   -3.51217e-05   -0.000479463
-0.000364792   -2.12856e-05   -0.000346029
-0.000406785   -8.98654e-05   -0.000400733
-0.000384105   -0.000122874   -0.000530504
-0.000473224   -8.79917e-05   -0.000579802
-0.000419985   -0.000131452   -0.000492575
-0.000380751   -6.55802e-05   -0.000346281
-0.000533389   0.000382953   5.92425e-05
-0.000180351   -1.41536e-07   -0.00056296
-0.000547911   0.000249432   7.78664e-05
-0.00033823   3.79141e-05   -4.50446e-05
-0.000375354   -0.000116632   -0.000331118
-0.000387971   -9.59325e-05   -0.000366774
1.04174e-05   3.20375e-05   0.000127761
3.61185e-05   2.09854e-05   0.000120572
3.76404e-05   1.55985e-05   0.000155153
2.14845e-05   2.12317e-05   0.000161061
-0.000435021   -0.000111123   -0.000711802
9.50614e-05   1.89265e-06   9.55183e-05
4.43089e-05   -1.84865e-05   0.000110917
3.98268e-05   -2.11781e-05   0.000112177
0.000159861   4.10486e-05   3.99381e-05
0.000125003   3.0094e-05   4.66116e-05
0.00017143   4.9458e-05   3.79547e-05
0.000111487   3.69376e-05   6.75651e-06
8.41766e-05   3.04747e-05   3.60871e-06
9.11656e-05   3.48225e-05   8.21141e-06
0.000122039   3.55352e-05   3.24863e-05
0.000125085   4.87941e-05   -1.34316e-05
0.000127707   4.57854e-05   1.51396e-05
0.000148327   3.20681e-05   7.15766e-05
0.000132554   3.39358e-05   5.79382e-05
9.32194e-05   1.91998e-05   5.44454e-05
-0.000380569   7.14209e-05   -0.000651899
-0.000225437   0.000255334   -0.00032653
-0.000354509   -1.91269e-06   -0.000488971
-0.000479556   -0.000337478   -0.00179214
-0.000602285   -0.000153173   -0.00116398
-0.000659557   -0.000334384   -0.0017324
1.98898e-06   -3.66465e-05   0.000120372
3.10521e-05   -3.72726e-05   0.000134958
1.32249e-05   -2.57539e-05   0.000105985
-0.000143795   0.000520915   -0.000477703
-2.62856e-05   -3.41809e-05   0.00010344
-2.4564e-05   -5.26157e-05   0.000133578
-3.04146e-05   -5.26789e-05   0.000132687
-3.39777e-07   -3.58187e-05   0.000118891
-5.25506e-05   -7.01994e-05   0.000138997
-2.63519e-05   -7.22074e-05   0.000152227
-3.2159e-06   -5.76647e-05   0.000144149
-4.23956e-05   -6.4885e-05   0.000143427
-5.8088e-05   -5.86053e-05   0.000129938
-2.99265e-05   -4.41971e-05   0.000115919
6.33696e-05   1.98152e-05   -1.93698e-05
2.00274e-05   8.93264e-06   -2.56176e-05
5.33786e-05   8.93897e-06   2.39927e-05
3.53306e-06   -7.2007e-06   4.87933e-05
-0.00014571   1.00267e-05   2.90704e-05
-0.000186311   -2.66076e-05   -0.000127667
-0.000137216   -0.000176944   9.64453e-05
-0.000140012   -0.000143815   8.08663e-05
-0.000171068   7.24821e-05   -0.000104338
-0.000208294   1.59963e-05   -0.000111301
6.66337e-05   -2.53334e-05   0.000132082
3.85806e-05   -2.36418e-05   0.000115027
-9.48349e-05   -0.000331887   9.10473e-05
-0.000140055   -0.000269155   -0.000164912
-0.000273166   9.73926e-05   -0.000397165
-0.000294359   -1.92835e-05   -0.000566286
-0.000215709   -6.18116e-05   -0.000197946
-0.000187869   0.000123609   -0.000457786
-0.000152335   7.43837e-05   -8.48398e-05
6.19232e-05   -2.93135e-05   0.000155057
5.35712e-05   -1.93791e-05   0.000135971
5.98176e-05   -3.63437e-05   0.000161476
6.06137e-05   -9.78369e-06   0.000156563
5.02364e-05   -5.9269e-05   0.000156823
5.55012e-05   -4.2301e-05   0.000154361
7.28261e-05   -4.24902e-05   0.000171259
7.4993e-05   -2.87729e-05   0.000175255
7.81787e-05   -2.31895e-05   0.00016053
7.16673e-05   -1.0588e-05   0.000164873
5.09841e-05   -3.00732e-05   0.000138459
6.75967e-05   -4.61299e-05   0.000176234
-4.39317e-05   1.95022e-05   2.30847e-05
-2.40898e-05   4.31605e-05   -4.35894e-05
-2.61593e-05   2.31558e-05   2.99269e-05
2.18224e-06   2.34665e-05   1.18338e-05
-9.35298e-05   1.60503e-05   2.4281e-05
-0.000108639   4.65166e-05   -8.35515e-05
-0.000117558   3.74119e-05   -5.94832e-05
0   0   0
-7.97883e-06   2.31407e-05   6.58339e-05
-2.6465e-05   2.44037e-05   6.48353e-05
-1.0658e-05   1.21174e-05   -9.77739e-05
-5.26373e-05   -4.35459e-06   -0.000115898
4.93344e-06   2.79302e-05   -0.000165576
1.24351e-05   2.26601e-05   -0.000145823
-3.87306e-07   2.11928e-05   -8.96393e-05
-4.66749e-05   1.84634e-06   -9.99354e-05
-2.60826e-05   -1.36207e-06   -4.77905e-05
2.54212e-05   1.9993e-05   -6.48143e-05
-6.59676e-07   1.01489e-05   -8.38026e-05
-6.92079e-05   -1.55434e-05   -6.67731e-05
0.000126536   5.09678e-06   0.000185899
0.0001151   2.9097e-06   0.000190475
0.000110909   5.16686e-06   0.000179539
0.000102805   -4.90453e-06   0.000184412
0.000104745   -1.09175e-06   0.000194729
9.62088e-05   5.45614e-06   0.000184454
9.54734e-05   1.72006e-06   0.000165835
0.000107752   4.20132e-06   0.000191807
1.80656e-05   -1.74367e-05   9.17588e-05
-8.02188e-05   -6.67661e-06   0.00016707
-9.4389e-05   1.50702e-05   0.000100206
-0.000101085   -6.12409e-05   0.000183299
-4.50263e-05   2.31618e-05   0.00014123
-0.000117287   -2.92416e-05   9.908e-05
-9.82878e-05   0.000114419   -0.000108664
-5.18877e-05   5.97644e-05   4.20172e-05
-6.57525e-05   -3.43607e-05   8.10565e-05
-6.26422e-05   -4.15794e-05   0.000101196
-4.60081e-05   -3.12823e-05   8.4615e-05
-5.56896e-05   -3.68482e-05   9.33553e-05
-5.78171e-05   -7.12584e-06   0.000195187
-8.84655e-05   -7.14111e-05   0.000249143
-7.48992e-05   -1.70439e-05   0.000196631
-5.68156e-05   2.50671e-05   8.76678e-05
-4.09661e-05   2.2994e-05   0.000160001
-5.36609e-05   3.58606e-05   0.000107735
-0.000382283   -3.29643e-05   -0.000340115
-0.000365641   -1.92385e-05   -0.000316882
-0.000355623   -2.41097e-05   -0.000311282
-0.000397391   -3.98125e-05   -0.000367083
-0.000410024   -6.30772e-05   -0.000366234
-0.000429541   -7.52273e-05   -0.000469953
-0.000426161   -6.94235e-05   -0.000415498
-0.000398064   -6.77678e-05   -0.00035317
-0.00033429   -6.08334e-05   -0.000334436
-0.000401322   -6.04668e-05   -0.000383973
-0.000375824   -6.46899e-05   -0.000369978
-0.000354438   -1.48514e-05   -0.000311407
-0.000331901   -3.94681e-05   -0.000296493
1.28137e-05   -2.04801e-05   9.18594e-05
7.75543e-06   -1.02048e-05   6.19605e-05
-0.000302724   -6.12465e-05   -0.000346754
-0.000472109   -6.31057e-05   -0.000690066
-0.000402505   -5.34405e-05   -0.000723431
-0.000516183   -0.000134675   -0.000865761
-0.000484482   -0.000114954   -0.00124745
-0.000411968   -5.09015e-05   -0.000535558
-0.000472294   -0.000102008   -0.000623057
-0.000552387   -0.000135437   -0.000930412
-0.00017004   -6.56326e-05   0.000135774
-0.000151137   -6.76454e-05   0.000132826
-0.000136995   -5.66194e-05   0.000104897
-0.00013786   -7.91979e-05   0.000140116
2.23839e-05   5.93285e-05   -3.72479e-05
-2.94214e-05   3.65692e-06   0.000117065
-8.30886e-05   -1.47112e-05   6.98366e-05
-2.07755e-05   7.21906e-06   -6.15803e-05
-4.77692e-05   0.000117509   -0.000372687
-2.47937e-05   8.11295e-05   -0.000110801
-9.53146e-05   -5.38259e-05   -7.07874e-05
-0.00018142   -0.000230424   0.000149859
-0.000100813   -2.89881e-05   -0.000191602
-6.41562e-05   2.20176e-05   -0.000287734
-3.18965e-05   3.32806e-05   -0.000277234
-5.31219e-05   3.38646e-05   -0.000297309
-7.62276e-05   2.57003e-05   -0.000278783
-3.20479e-05   3.92874e-05   -8.63118e-05
1.89528e-05   6.28528e-05   -0.000139165
-6.76407e-06   6.87604e-05   -0.000146917
2.47803e-05   5.62356e-05   -8.89627e-05
5.37218e-06   9.85991e-05   -0.000206682
3.37035e-05   9.99551e-05   -0.000196066
1.2858e-05   7.81055e-05   -0.000137711
-4.10868e-05   8.07931e-05   -0.000197577
-7.07421e-05   5.11068e-05   -0.000117164
2.36901e-05   5.99904e-05   -7.91001e-05
5.83102e-05   8.30578e-05   -0.000131839
2.4264e-05   3.80125e-05   4.48175e-06
-9.95975e-05   -0.000103779   -0.000107962
-0.000101655   -9.48185e-05   -1.62484e-05
-2.83625e-05   -7.07361e-05   -4.01436e-05
-1.67127e-05   -3.60406e-05   -8.68341e-05
-6.3728e-05   -9.74845e-05   -1.97551e-06
-3.63032e-05   -8.67482e-05   5.38444e-05
-1.90938e-05   -9.51367e-05   -2.91278e-05
-9.20887e-05   -0.000104291   -6.14021e-05
-6.33505e-05   -9.82861e-05   -0.000177573
-8.29629e-05   -9.5792e-05   -4.70091e-05
-9.34468e-05   -8.74426e-05   5.37496e-05
-6.6655e-05   -8.70743e-05   2.10804e-05
6.60345e-05   -6.64164e-06   0.000102178
5.07383e-05   -2.33093e-05   0.000124232
7.46161e-05   -1.99205e-05   0.000130335
1.9404e-05   -1.78946e-05   8.97889e-05
2.18376e-05   -3.05322e-05   0.000116832
4.79084e-05   -4.78456e-06   7.76848e-05
6.90481e-05   -8.89438e-06   0.000101408
0.000119777   1.40055e-05   0.000105341
0.000172231   3.20849e-05   9.87321e-05
0.000133451   2.65611e-05   8.9198e-05
0.000157345   1.51702e-05   0.000127054
0.000154879   2.32427e-05   9.94446e-05
8.81515e-05   3.74513e-06   9.75263e-05
9.41348e-05   3.23311e-06   0.000115679
9.71268e-05   -6.08159e-06   0.00013615
0.000102221   1.51646e-05   8.88252e-05
0.000115809   1.32736e-05   9.4436e-05
0.000126961   1.10892e-06   0.00013516
0.000139069   1.09552e-05   0.00013366
-4.20153e-05   1.61871e-05   -0.000247861
-2.14496e-05   2.04687e-05   -0.00022866
-1.59103e-05   2.70346e-05   -0.000241433
-3.63206e-05   1.07363e-05   -0.000199737
-5.27591e-05   1.35683e-05   -0.000234354
3.12368e-06   3.85803e-05   -0.000222283
-4.51187e-05   2.39301e-05   -0.000219198
-1.12677e-05   3.44766e-05   -0.000255422
-7.72613e-05   -4.82466e-06   -0.000192074
-9.06986e-05   7.04912e-06   -0.000260908
-8.76053e-05   -4.9501e-06   -0.00016759
-7.03287e-05   1.01249e-05   -0.000270386
-3.89318e-05   2.40236e-05   -0.000264851
-0.000235127   -4.6564e-05   0.000114808
-0.000188842   -7.67898e-05   0.000112475
-0.000222108   -5.13153e-05   0.000165412
-0.000247417   -2.12219e-05   0.000137893
-0.000254888   -1.32658e-05   0.000182968
-0.000242357   -2.32154e-05   0.000152219
-0.000287127   4.88642e-05   0.000202605
-0.00026431   4.8144e-06   0.000173405
-0.00027153   8.73985e-06   0.000197036
-0.0002502   -1.16657e-05   0.000138055
-0.000211629   -4.79163e-05   0.000101214
1.12057e-05   4.84479e-05   -0.000145637
-5.51078e-05   4.50049e-05   -0.00018389
2.18136e-05   7.17599e-05   -0.000198133
-3.63154e-05   5.74052e-05   -0.000242791
-3.98286e-05   2.8868e-05   -0.000137083
-3.72314e-05   -6.83044e-05   0.000126827
-1.59219e-05   -6.91651e-05   0.000142989
-5.07051e-05   -9.90868e-05   0.000143427
-3.43009e-05   3.78367e-05   -0.000122006
4.03351e-05   3.81512e-05   -7.21658e-05
4.84427e-06   3.15414e-05   -0.000103948
6.30305e-05   5.86941e-05   -0.000143672
6.07776e-06   4.0179e-05   -0.000173966
1.22114e-05   6.07076e-05   -0.000214035
0.000112276   -3.11596e-05   0.000182406
0.000106441   -2.53442e-05   0.000177253
0.00011371   -2.16461e-05   0.000167893
8.74565e-05   -3.04335e-05   0.000167685
-3.61678e-05   -3.34082e-05   8.35593e-05
-6.2599e-05   -4.77681e-05   9.77631e-05
-4.6079e-05   -3.04568e-05   8.01401e-05
0.000122934   -2.32353e-05   0.000177798
0.000133148   -1.48937e-05   0.000176126
-8.88033e-05   2.23639e-05   -0.000309056
-7.04852e-05   3.72716e-05   -0.000313016
0.000142529   -7.72588e-06   0.000162745
0.000120992   -1.26063e-05   0.000152662
0.000120566   -5.39189e-06   0.000155111
0.00013335   -1.53658e-05   0.00017093
0.00012916   -1.73705e-05   0.00016538
0.000143614   -7.10265e-06   0.000168422
3.45206e-05   1.07364e-05   0.000150318
5.31846e-05   1.5752e-05   0.000146231
3.19288e-05   7.35128e-06   0.000168998
1.34479e-05   9.8547e-06   0.000149342
5.76039e-05   2.08238e-05   0.000119141
7.28e-05   2.72637e-05   9.48223e-05
7.67551e-05   1.83847e-05   0.000144822
4.77135e-05   2.03034e-05   0.000115885
6.50073e-05   1.55843e-05   0.000155341
8.25168e-05   2.07384e-05   0.000140401
5.23704e-05   1.61982e-05   0.000135086
6.70122e-05   1.8704e-05   0.000139183
6.58085e-05   1.32728e-05   0.000169089
4.68661e-05   1.00239e-05   0.000172733
3.69246e-05   1.359e-05   0.000159924
-0.00067987   -0.000437356   -0.00418095
6.43552e-06   1.62344e-05   -0.00202536
-0.000344245   2.31672e-05   -0.00154775
-0.000206226   -0.000116065   -0.000984626
0.000399536   -3.14595e-05   -0.00421855
6.55544e-05   -4.45018e-05   -0.00113686
-4.29506e-05   -0.000108947   -0.000907241
0.000218808   -4.19285e-05   -0.00165711
-0.000231573   -5.86747e-05   -0.00134738
-0.000101273   5.30023e-06   -0.000951491
-2.68267e-06   -4.76167e-05   -0.00124938
-0.00013064   -0.000110619   -0.00116083
0.000180455   -0.000146568   -0.00178288
-1.36493e-05   -2.37803e-05   8.64998e-05
-6.06715e-06   -1.77525e-05   6.91502e-05
-3.4812e-05   -1.86239e-05   3.92872e-05
-1.98094e-05   -9.98022e-06   2.92363e-05
-0.000210331   -5.1115e-05   -0.000238878
-0.000194045   -2.81254e-05   -0.00028397
-0.000132388   -1.43001e-05   -0.000241551
-0.000158178   -2.75952e-05   -0.000257914
-0.000234322   -4.63886e-05   -0.000295099
-0.000263643   -5.35634e-05   -0.000277738
-0.000242352   -6.37999e-05   -0.000244426
-0.000255136   -5.8133e-05   -0.000275757
-0.000259931   -7.8016e-05   -0.000214352
4.47098e-05   1.6618e-05   0.000142838
2.10039e-05   1.2044e-05   0.000184612
-6.68829e-06   1.89737e-05   0.000155303
-0.000219795   -2.90208e-05   -0.000268619
-0.000187538   -4.67229e-05   -0.000201524
3.15512e-06   -9.11324e-06   -0.000686682
5.95432e-05   7.64816e-06   0.000198891
7.20729e-05   1.03218e-05   0.000189009
7.45291e-05   8.04215e-06   0.000195812
5.03579e-05   9.78581e-06   0.000182913
2.72008e-05   -0.000117999   -0.000935906
9.1022e-05   2.59376e-05   -0.000623223
-4.10605e-05   0.000106512   -0.000913962
-0.000105517   -4.0042e-05   7.44704e-05
-8.57069e-05   -3.79904e-05   7.73644e-05
-8.7496e-05   -3.21023e-05   5.2953e-05
-9.00531e-05   -3.65992e-05   6.67094e-05
6.83901e-05   1.9385e-05   1.7464e-05
7.1448e-05   3.11536e-05   -3.4299e-05
0.000105433   2.84984e-05   2.46086e-05
0.000127688   5.08028e-05   -4.74059e-05
9.51235e-05   4.54288e-05   -4.5756e-05
0.000161579   6.31405e-05   -3.27944e-05
0.000152558   4.90864e-05   -2.08117e-06
0.000175915   5.94728e-05   1.84653e-05
4.6643e-05   6.55604e-05   -0.000246228
5.03322e-05   5.91081e-05   -0.000230631
6.94264e-05   6.86435e-05   -0.000224611
4.27211e-05   6.18274e-05   -0.000214346
7.1204e-05   5.09973e-05   -0.000176329
8.38283e-05   5.96748e-05   -0.000183262
4.56585e-05   5.11074e-05   -0.000193939
5.18141e-05   4.46056e-05   -0.000142989
3.03111e-05   5.80658e-05   -0.000252441
7.3334e-05   -2.69096e-05   0.000190888
8.43189e-05   -1.5993e-05   0.000185511
6.74768e-05   -8.565e-06   0.000184378
-4.40796e-06   4.84032e-05   -0.000248109
3.48333e-05   4.77309e-05   -0.000225456
-0.000153945   -1.29399e-05   -0.000302484
-0.000152274   -2.85776e-06   -0.000315794
-0.000203948   -4.02544e-05   -0.000285253
-0.000240097   -3.47365e-05   -0.000317726
-0.000130067   -3.23761e-05   -0.000178908
-0.000179173   -2.66739e-05   -0.000296438
-0.000186646   -9.78053e-05   8.69811e-05
-0.00023999   -5.49068e-05   0.000187695
-0.00020347   -9.37282e-05   0.000173939
-0.000260297   -3.9384e-05   0.000162386
4.93614e-05   1.00485e-05   0.000182395
-0.000127854   -0.000134825   8.96515e-05
-8.3467e-05   -0.000144181   -6.14037e-05
-0.000262251   -3.71632e-05   0.000109393
-0.000171793   -0.000103312   0.00011675
-0.000311135   8.12591e-05   0.000210416
-0.000279994   3.95647e-06   6.6765e-05
-0.000219867   -7.64236e-05   8.14148e-05
8.32229e-05   1.62846e-05   0.000164466
9.95274e-05   1.84467e-05   0.000161381
8.55849e-05   1.37577e-05   0.000176483
7.52395e-05   1.52432e-05   0.000154676
8.69584e-05   1.1106e-05   0.000186227
9.18769e-05   1.29976e-05   0.000172714
-7.40923e-05   -1.21309e-05   -0.000179776
-4.92364e-05   -3.43898e-06   -0.000164729
-4.01444e-05   2.19704e-06   -0.000157127
-8.15826e-05   -1.74564e-05   -0.000133046
-5.458e-05   -2.18677e-06   -0.000192918
-3.55045e-05   7.89343e-06   -0.000202667
-1.272e-05   1.50132e-05   -0.000186202
-3.06832e-05   5.66692e-06   -0.000176613
-3.93345e-05   -2.30582e-06   -0.000120104
-2.59012e-05   4.47895e-06   -0.000149403
-4.40369e-06   1.13192e-05   -0.000134197
-8.1323e-06   1.30614e-05   -0.000161137
8.00688e-05   7.68303e-06   0.000144179
7.80699e-05   7.73202e-06   0.000158052
9.91648e-05   9.37468e-06   0.0001432
8.91986e-05   1.50053e-05   0.000141857
6.13727e-05   1.19904e-05   0.000157334
7.82836e-05   8.40652e-06   0.000174575
7.1611e-05   6.55879e-07   0.000153827
7.40609e-05   1.07935e-06   0.000168205
7.0971e-05   1.43123e-05   0.000135315
5.95063e-05   8.08959e-06   0.000155912
0.000165527   3.07624e-05   0.000110689
0.000125126   2.14697e-05   0.000108306
0.000164398   3.18243e-05   0.000123117
0.000178791   4.25583e-05   9.11588e-05
0.000160378   2.37157e-05   0.000136146
0.000122813   1.45601e-05   0.0001173
0.00017505   4.37124e-05   7.13077e-05
0.000191527   4.13882e-05   0.000110058
0.000194826   4.18071e-05   0.000104151
5.45156e-05   -3.93406e-05   0.000176759
5.23744e-05   -1.11069e-05   0.000161664
5.50183e-05   -2.68444e-05   0.000184433
6.23926e-05   -2.44183e-05   0.000178092
4.9642e-05   -8.21503e-05   0.000175153
5.90882e-05   -7.29982e-05   0.000179666
4.79159e-05   -8.45498e-05   0.000176939
5.33927e-05   -6.85883e-05   0.000170117
5.02833e-05   -3.2237e-05   0.000144811
5.94904e-05   4.02475e-07   0.000154396
6.47002e-05   -4.30497e-05   0.000181229
7.11155e-05   -3.76192e-05   0.000186231
6.21092e-05   3.70871e-06   0.00020427
6.17582e-05   5.84935e-06   0.000202649
7.5021e-05   5.92773e-06   0.000199722
6.74819e-05   6.01814e-06   0.000192109
6.73446e-05   -2.05025e-05   0.000192302
5.79258e-05   -4.84753e-05   0.000175707
6.04909e-05   -3.54535e-05   0.000182
2.0054e-05   3.3293e-05   2.71805e-05
4.1962e-05   3.92785e-05   1.95294e-05
6.38346e-07   2.29753e-05   5.46455e-05
3.48872e-06   3.63634e-05   4.0646e-06
8.2656e-06   4.90113e-05   -3.14789e-05
-2.01339e-05   3.33612e-05   -3.53035e-06
3.06588e-05   5.60853e-05   -3.76136e-05
3.34896e-05   5.36481e-05   -3.98184e-05
4.8042e-05   5.00719e-05   -1.07454e-05
-0.000278299   -2.64242e-05   -6.81005e-05
-0.000120381   -6.75405e-05   -0.000304237
-0.000192052   -7.81727e-05   -6.69202e-05
-7.30034e-05   -0.000114948   -0.000178218
-2.85378e-05   -2.76945e-05   -0.000783131
-1.91763e-05   -5.93511e-05   -0.000653464
3.52929e-05   -4.77941e-05   -0.000700187
-7.21873e-06   -6.43578e-05   -0.000369205
-7.7831e-05   -0.000125869   -0.000487881
-6.63666e-05   -5.544e-05   -0.000499708
-0.000168172   -4.36135e-05   -0.000331537
-0.000291393   2.69433e-05   -0.000323779
-0.000277541   -5.15545e-06   -0.000184316
-0.000304286   4.15174e-05   -0.000342467
-0.00015755   -0.000134387   -0.000151202
-0.00033633   0.000125652   -0.000173856
-9.28282e-05   -0.00016988   -0.000119594
-0.000149889   -0.000147544   -3.63795e-05
-0.000112894   -0.000224286   -0.000747714
-1.99558e-05   -0.000207069   -0.000511539
-0.000190752   -7.32231e-05   -3.21386e-05
-0.000635836   -0.000424996   -0.00119748
-0.000367359   -0.000209719   -0.000700203
-0.000217278   -0.000427369   -0.000638768
-0.000664897   -0.000199677   -0.00178812